V -t * -v 1.0a5 -a 0
A -t * -n 1 -p 0 -o 0x7fffffff -c 30 -a 1
A -t * -h 1 -m 1073741823 -s 0
c -t * -i 0 -n blue
c -t * -i 1 -n red
n -t * -a 0 -s 0 -S UP -v circle -c black -i black
n -t * -a 1 -s 1 -S UP -v circle -c black -i black
n -t * -a 2 -s 2 -S UP -v circle -c black -i black
n -t * -a 3 -s 3 -S UP -v circle -c black -i black
l -t * -s 0 -d 2 -S UP -r 5000000 -D 0.002 -c black -o right-up
l -t * -s 1 -d 2 -S UP -r 5000000 -D 0.002 -c black -o right-down
l -t * -s 2 -d 3 -S UP -r 1500000 -D 0.01 -c black -o right
q -t * -s 3 -d 2 -a 0.5
q -t * -s 2 -d 3 -a 0.5
+ -t 0.2 -s 0 -d 2 -p tcp -e 40 -c 0 -i 0 -a 0 -x {0.0 3.0 0 ------- null}
- -t 0.2 -s 0 -d 2 -p tcp -e 40 -c 0 -i 0 -a 0 -x {0.0 3.0 0 ------- null}
h -t 0.2 -s 0 -d 2 -p tcp -e 40 -c 0 -i 0 -a 0 -x {0.0 3.0 -1 ------- null}
r -t 0.202064 -s 0 -d 2 -p tcp -e 40 -c 0 -i 0 -a 0 -x {0.0 3.0 0 ------- null}
+ -t 0.202064 -s 2 -d 3 -p tcp -e 40 -c 0 -i 0 -a 0 -x {0.0 3.0 0 ------- null}
- -t 0.202064 -s 2 -d 3 -p tcp -e 40 -c 0 -i 0 -a 0 -x {0.0 3.0 0 ------- null}
h -t 0.202064 -s 2 -d 3 -p tcp -e 40 -c 0 -i 0 -a 0 -x {0.0 3.0 -1 ------- null}
r -t 0.212277333333333 -s 2 -d 3 -p tcp -e 40 -c 0 -i 0 -a 0 -x {0.0 3.0 0 ------- null}
+ -t 0.212277333333333 -s 3 -d 2 -p ack -e 40 -c 0 -i 1 -a 0 -x {3.0 0.0 0 ------- null}
- -t 0.212277333333333 -s 3 -d 2 -p ack -e 40 -c 0 -i 1 -a 0 -x {3.0 0.0 0 ------- null}
h -t 0.212277333333333 -s 3 -d 2 -p ack -e 40 -c 0 -i 1 -a 0 -x {3.0 0.0 -1 ------- null}
r -t 0.222490666666667 -s 3 -d 2 -p ack -e 40 -c 0 -i 1 -a 0 -x {3.0 0.0 0 ------- null}
+ -t 0.222490666666667 -s 2 -d 0 -p ack -e 40 -c 0 -i 1 -a 0 -x {3.0 0.0 0 ------- null}
- -t 0.222490666666667 -s 2 -d 0 -p ack -e 40 -c 0 -i 1 -a 0 -x {3.0 0.0 0 ------- null}
h -t 0.222490666666667 -s 2 -d 0 -p ack -e 40 -c 0 -i 1 -a 0 -x {3.0 0.0 -1 ------- null}
r -t 0.224554666666667 -s 2 -d 0 -p ack -e 40 -c 0 -i 1 -a 0 -x {3.0 0.0 0 ------- null}
+ -t 0.224554666666667 -s 0 -d 2 -p tcp -e 1040 -c 0 -i 2 -a 0 -x {0.0 3.0 1 ------- null}
- -t 0.224554666666667 -s 0 -d 2 -p tcp -e 1040 -c 0 -i 2 -a 0 -x {0.0 3.0 1 ------- null}
h -t 0.224554666666667 -s 0 -d 2 -p tcp -e 1040 -c 0 -i 2 -a 0 -x {0.0 3.0 -1 ------- null}
+ -t 0.224554666666667 -s 0 -d 2 -p tcp -e 1040 -c 0 -i 3 -a 0 -x {0.0 3.0 2 ------- null}
- -t 0.226218666666667 -s 0 -d 2 -p tcp -e 1040 -c 0 -i 3 -a 0 -x {0.0 3.0 2 ------- null}
h -t 0.226218666666667 -s 0 -d 2 -p tcp -e 1040 -c 0 -i 3 -a 0 -x {0.0 3.0 -1 ------- null}
r -t 0.228218666666667 -s 0 -d 2 -p tcp -e 1040 -c 0 -i 2 -a 0 -x {0.0 3.0 1 ------- null}
+ -t 0.228218666666667 -s 2 -d 3 -p tcp -e 1040 -c 0 -i 2 -a 0 -x {0.0 3.0 1 ------- null}
- -t 0.228218666666667 -s 2 -d 3 -p tcp -e 1040 -c 0 -i 2 -a 0 -x {0.0 3.0 1 ------- null}
h -t 0.228218666666667 -s 2 -d 3 -p tcp -e 1040 -c 0 -i 2 -a 0 -x {0.0 3.0 -1 ------- null}
r -t 0.229882666666667 -s 0 -d 2 -p tcp -e 1040 -c 0 -i 3 -a 0 -x {0.0 3.0 2 ------- null}
+ -t 0.229882666666667 -s 2 -d 3 -p tcp -e 1040 -c 0 -i 3 -a 0 -x {0.0 3.0 2 ------- null}
- -t 0.233765333333333 -s 2 -d 3 -p tcp -e 1040 -c 0 -i 3 -a 0 -x {0.0 3.0 2 ------- null}
h -t 0.233765333333333 -s 2 -d 3 -p tcp -e 1040 -c 0 -i 3 -a 0 -x {0.0 3.0 -1 ------- null}
r -t 0.243765333333333 -s 2 -d 3 -p tcp -e 1040 -c 0 -i 2 -a 0 -x {0.0 3.0 1 ------- null}
+ -t 0.243765333333333 -s 3 -d 2 -p ack -e 40 -c 0 -i 4 -a 0 -x {3.0 0.0 1 ------- null}
- -t 0.243765333333333 -s 3 -d 2 -p ack -e 40 -c 0 -i 4 -a 0 -x {3.0 0.0 1 ------- null}
h -t 0.243765333333333 -s 3 -d 2 -p ack -e 40 -c 0 -i 4 -a 0 -x {3.0 0.0 -1 ------- null}
r -t 0.249312 -s 2 -d 3 -p tcp -e 1040 -c 0 -i 3 -a 0 -x {0.0 3.0 2 ------- null}
+ -t 0.249312 -s 3 -d 2 -p ack -e 40 -c 0 -i 5 -a 0 -x {3.0 0.0 2 ------- null}
- -t 0.249312 -s 3 -d 2 -p ack -e 40 -c 0 -i 5 -a 0 -x {3.0 0.0 2 ------- null}
h -t 0.249312 -s 3 -d 2 -p ack -e 40 -c 0 -i 5 -a 0 -x {3.0 0.0 -1 ------- null}
r -t 0.253978666666667 -s 3 -d 2 -p ack -e 40 -c 0 -i 4 -a 0 -x {3.0 0.0 1 ------- null}
+ -t 0.253978666666667 -s 2 -d 0 -p ack -e 40 -c 0 -i 4 -a 0 -x {3.0 0.0 1 ------- null}
- -t 0.253978666666667 -s 2 -d 0 -p ack -e 40 -c 0 -i 4 -a 0 -x {3.0 0.0 1 ------- null}
h -t 0.253978666666667 -s 2 -d 0 -p ack -e 40 -c 0 -i 4 -a 0 -x {3.0 0.0 -1 ------- null}
r -t 0.256042666666667 -s 2 -d 0 -p ack -e 40 -c 0 -i 4 -a 0 -x {3.0 0.0 1 ------- null}
+ -t 0.256042666666667 -s 0 -d 2 -p tcp -e 1040 -c 0 -i 6 -a 0 -x {0.0 3.0 3 ------- null}
- -t 0.256042666666667 -s 0 -d 2 -p tcp -e 1040 -c 0 -i 6 -a 0 -x {0.0 3.0 3 ------- null}
h -t 0.256042666666667 -s 0 -d 2 -p tcp -e 1040 -c 0 -i 6 -a 0 -x {0.0 3.0 -1 ------- null}
+ -t 0.256042666666667 -s 0 -d 2 -p tcp -e 1040 -c 0 -i 7 -a 0 -x {0.0 3.0 4 ------- null}
- -t 0.257706666666667 -s 0 -d 2 -p tcp -e 1040 -c 0 -i 7 -a 0 -x {0.0 3.0 4 ------- null}
h -t 0.257706666666667 -s 0 -d 2 -p tcp -e 1040 -c 0 -i 7 -a 0 -x {0.0 3.0 -1 ------- null}
r -t 0.259525333333333 -s 3 -d 2 -p ack -e 40 -c 0 -i 5 -a 0 -x {3.0 0.0 2 ------- null}
+ -t 0.259525333333333 -s 2 -d 0 -p ack -e 40 -c 0 -i 5 -a 0 -x {3.0 0.0 2 ------- null}
- -t 0.259525333333333 -s 2 -d 0 -p ack -e 40 -c 0 -i 5 -a 0 -x {3.0 0.0 2 ------- null}
h -t 0.259525333333333 -s 2 -d 0 -p ack -e 40 -c 0 -i 5 -a 0 -x {3.0 0.0 -1 ------- null}
r -t 0.259706666666667 -s 0 -d 2 -p tcp -e 1040 -c 0 -i 6 -a 0 -x {0.0 3.0 3 ------- null}
+ -t 0.259706666666667 -s 2 -d 3 -p tcp -e 1040 -c 0 -i 6 -a 0 -x {0.0 3.0 3 ------- null}
- -t 0.259706666666667 -s 2 -d 3 -p tcp -e 1040 -c 0 -i 6 -a 0 -x {0.0 3.0 3 ------- null}
h -t 0.259706666666667 -s 2 -d 3 -p tcp -e 1040 -c 0 -i 6 -a 0 -x {0.0 3.0 -1 ------- null}
r -t 0.261370666666667 -s 0 -d 2 -p tcp -e 1040 -c 0 -i 7 -a 0 -x {0.0 3.0 4 ------- null}
+ -t 0.261370666666667 -s 2 -d 3 -p tcp -e 1040 -c 0 -i 7 -a 0 -x {0.0 3.0 4 ------- null}
r -t 0.261589333333333 -s 2 -d 0 -p ack -e 40 -c 0 -i 5 -a 0 -x {3.0 0.0 2 ------- null}
+ -t 0.261589333333333 -s 0 -d 2 -p tcp -e 1040 -c 0 -i 8 -a 0 -x {0.0 3.0 5 ------- null}
- -t 0.261589333333333 -s 0 -d 2 -p tcp -e 1040 -c 0 -i 8 -a 0 -x {0.0 3.0 5 ------- null}
h -t 0.261589333333333 -s 0 -d 2 -p tcp -e 1040 -c 0 -i 8 -a 0 -x {0.0 3.0 -1 ------- null}
+ -t 0.261589333333333 -s 0 -d 2 -p tcp -e 1040 -c 0 -i 9 -a 0 -x {0.0 3.0 6 ------- null}
- -t 0.263253333333333 -s 0 -d 2 -p tcp -e 1040 -c 0 -i 9 -a 0 -x {0.0 3.0 6 ------- null}
h -t 0.263253333333333 -s 0 -d 2 -p tcp -e 1040 -c 0 -i 9 -a 0 -x {0.0 3.0 -1 ------- null}
- -t 0.265253333333333 -s 2 -d 3 -p tcp -e 1040 -c 0 -i 7 -a 0 -x {0.0 3.0 4 ------- null}
h -t 0.265253333333333 -s 2 -d 3 -p tcp -e 1040 -c 0 -i 7 -a 0 -x {0.0 3.0 -1 ------- null}
r -t 0.265253333333333 -s 0 -d 2 -p tcp -e 1040 -c 0 -i 8 -a 0 -x {0.0 3.0 5 ------- null}
+ -t 0.265253333333333 -s 2 -d 3 -p tcp -e 1040 -c 0 -i 8 -a 0 -x {0.0 3.0 5 ------- null}
r -t 0.266917333333333 -s 0 -d 2 -p tcp -e 1040 -c 0 -i 9 -a 0 -x {0.0 3.0 6 ------- null}
+ -t 0.266917333333333 -s 2 -d 3 -p tcp -e 1040 -c 0 -i 9 -a 0 -x {0.0 3.0 6 ------- null}
- -t 0.2708 -s 2 -d 3 -p tcp -e 1040 -c 0 -i 8 -a 0 -x {0.0 3.0 5 ------- null}
h -t 0.2708 -s 2 -d 3 -p tcp -e 1040 -c 0 -i 8 -a 0 -x {0.0 3.0 -1 ------- null}
r -t 0.275253333333333 -s 2 -d 3 -p tcp -e 1040 -c 0 -i 6 -a 0 -x {0.0 3.0 3 ------- null}
+ -t 0.275253333333333 -s 3 -d 2 -p ack -e 40 -c 0 -i 10 -a 0 -x {3.0 0.0 3 ------- null}
- -t 0.275253333333333 -s 3 -d 2 -p ack -e 40 -c 0 -i 10 -a 0 -x {3.0 0.0 3 ------- null}
h -t 0.275253333333333 -s 3 -d 2 -p ack -e 40 -c 0 -i 10 -a 0 -x {3.0 0.0 -1 ------- null}
- -t 0.276346666666667 -s 2 -d 3 -p tcp -e 1040 -c 0 -i 9 -a 0 -x {0.0 3.0 6 ------- null}
h -t 0.276346666666667 -s 2 -d 3 -p tcp -e 1040 -c 0 -i 9 -a 0 -x {0.0 3.0 -1 ------- null}
r -t 0.2808 -s 2 -d 3 -p tcp -e 1040 -c 0 -i 7 -a 0 -x {0.0 3.0 4 ------- null}
+ -t 0.2808 -s 3 -d 2 -p ack -e 40 -c 0 -i 11 -a 0 -x {3.0 0.0 4 ------- null}
- -t 0.2808 -s 3 -d 2 -p ack -e 40 -c 0 -i 11 -a 0 -x {3.0 0.0 4 ------- null}
h -t 0.2808 -s 3 -d 2 -p ack -e 40 -c 0 -i 11 -a 0 -x {3.0 0.0 -1 ------- null}
r -t 0.285466666666667 -s 3 -d 2 -p ack -e 40 -c 0 -i 10 -a 0 -x {3.0 0.0 3 ------- null}
+ -t 0.285466666666667 -s 2 -d 0 -p ack -e 40 -c 0 -i 10 -a 0 -x {3.0 0.0 3 ------- null}
- -t 0.285466666666667 -s 2 -d 0 -p ack -e 40 -c 0 -i 10 -a 0 -x {3.0 0.0 3 ------- null}
h -t 0.285466666666667 -s 2 -d 0 -p ack -e 40 -c 0 -i 10 -a 0 -x {3.0 0.0 -1 ------- null}
r -t 0.286346666666667 -s 2 -d 3 -p tcp -e 1040 -c 0 -i 8 -a 0 -x {0.0 3.0 5 ------- null}
+ -t 0.286346666666667 -s 3 -d 2 -p ack -e 40 -c 0 -i 12 -a 0 -x {3.0 0.0 5 ------- null}
- -t 0.286346666666667 -s 3 -d 2 -p ack -e 40 -c 0 -i 12 -a 0 -x {3.0 0.0 5 ------- null}
h -t 0.286346666666667 -s 3 -d 2 -p ack -e 40 -c 0 -i 12 -a 0 -x {3.0 0.0 -1 ------- null}
r -t 0.287530666666667 -s 2 -d 0 -p ack -e 40 -c 0 -i 10 -a 0 -x {3.0 0.0 3 ------- null}
+ -t 0.287530666666667 -s 0 -d 2 -p tcp -e 1040 -c 0 -i 13 -a 0 -x {0.0 3.0 7 ------- null}
- -t 0.287530666666667 -s 0 -d 2 -p tcp -e 1040 -c 0 -i 13 -a 0 -x {0.0 3.0 7 ------- null}
h -t 0.287530666666667 -s 0 -d 2 -p tcp -e 1040 -c 0 -i 13 -a 0 -x {0.0 3.0 -1 ------- null}
+ -t 0.287530666666667 -s 0 -d 2 -p tcp -e 1040 -c 0 -i 14 -a 0 -x {0.0 3.0 8 ------- null}
- -t 0.289194666666667 -s 0 -d 2 -p tcp -e 1040 -c 0 -i 14 -a 0 -x {0.0 3.0 8 ------- null}
h -t 0.289194666666667 -s 0 -d 2 -p tcp -e 1040 -c 0 -i 14 -a 0 -x {0.0 3.0 -1 ------- null}
r -t 0.291013333333333 -s 3 -d 2 -p ack -e 40 -c 0 -i 11 -a 0 -x {3.0 0.0 4 ------- null}
+ -t 0.291013333333333 -s 2 -d 0 -p ack -e 40 -c 0 -i 11 -a 0 -x {3.0 0.0 4 ------- null}
- -t 0.291013333333333 -s 2 -d 0 -p ack -e 40 -c 0 -i 11 -a 0 -x {3.0 0.0 4 ------- null}
h -t 0.291013333333333 -s 2 -d 0 -p ack -e 40 -c 0 -i 11 -a 0 -x {3.0 0.0 -1 ------- null}
r -t 0.291194666666667 -s 0 -d 2 -p tcp -e 1040 -c 0 -i 13 -a 0 -x {0.0 3.0 7 ------- null}
+ -t 0.291194666666667 -s 2 -d 3 -p tcp -e 1040 -c 0 -i 13 -a 0 -x {0.0 3.0 7 ------- null}
- -t 0.291194666666667 -s 2 -d 3 -p tcp -e 1040 -c 0 -i 13 -a 0 -x {0.0 3.0 7 ------- null}
h -t 0.291194666666667 -s 2 -d 3 -p tcp -e 1040 -c 0 -i 13 -a 0 -x {0.0 3.0 -1 ------- null}
r -t 0.291893333333333 -s 2 -d 3 -p tcp -e 1040 -c 0 -i 9 -a 0 -x {0.0 3.0 6 ------- null}
+ -t 0.291893333333333 -s 3 -d 2 -p ack -e 40 -c 0 -i 15 -a 0 -x {3.0 0.0 6 ------- null}
- -t 0.291893333333333 -s 3 -d 2 -p ack -e 40 -c 0 -i 15 -a 0 -x {3.0 0.0 6 ------- null}
h -t 0.291893333333333 -s 3 -d 2 -p ack -e 40 -c 0 -i 15 -a 0 -x {3.0 0.0 -1 ------- null}
r -t 0.292858666666667 -s 0 -d 2 -p tcp -e 1040 -c 0 -i 14 -a 0 -x {0.0 3.0 8 ------- null}
+ -t 0.292858666666667 -s 2 -d 3 -p tcp -e 1040 -c 0 -i 14 -a 0 -x {0.0 3.0 8 ------- null}
r -t 0.293077333333333 -s 2 -d 0 -p ack -e 40 -c 0 -i 11 -a 0 -x {3.0 0.0 4 ------- null}
+ -t 0.293077333333333 -s 0 -d 2 -p tcp -e 1040 -c 0 -i 16 -a 0 -x {0.0 3.0 9 ------- null}
- -t 0.293077333333333 -s 0 -d 2 -p tcp -e 1040 -c 0 -i 16 -a 0 -x {0.0 3.0 9 ------- null}
h -t 0.293077333333333 -s 0 -d 2 -p tcp -e 1040 -c 0 -i 16 -a 0 -x {0.0 3.0 -1 ------- null}
+ -t 0.293077333333333 -s 0 -d 2 -p tcp -e 1040 -c 0 -i 17 -a 0 -x {0.0 3.0 10 ------- null}
- -t 0.294741333333333 -s 0 -d 2 -p tcp -e 1040 -c 0 -i 17 -a 0 -x {0.0 3.0 10 ------- null}
h -t 0.294741333333333 -s 0 -d 2 -p tcp -e 1040 -c 0 -i 17 -a 0 -x {0.0 3.0 -1 ------- null}
r -t 0.29656 -s 3 -d 2 -p ack -e 40 -c 0 -i 12 -a 0 -x {3.0 0.0 5 ------- null}
+ -t 0.29656 -s 2 -d 0 -p ack -e 40 -c 0 -i 12 -a 0 -x {3.0 0.0 5 ------- null}
- -t 0.29656 -s 2 -d 0 -p ack -e 40 -c 0 -i 12 -a 0 -x {3.0 0.0 5 ------- null}
h -t 0.29656 -s 2 -d 0 -p ack -e 40 -c 0 -i 12 -a 0 -x {3.0 0.0 -1 ------- null}
- -t 0.296741333333333 -s 2 -d 3 -p tcp -e 1040 -c 0 -i 14 -a 0 -x {0.0 3.0 8 ------- null}
h -t 0.296741333333333 -s 2 -d 3 -p tcp -e 1040 -c 0 -i 14 -a 0 -x {0.0 3.0 -1 ------- null}
r -t 0.296741333333333 -s 0 -d 2 -p tcp -e 1040 -c 0 -i 16 -a 0 -x {0.0 3.0 9 ------- null}
+ -t 0.296741333333333 -s 2 -d 3 -p tcp -e 1040 -c 0 -i 16 -a 0 -x {0.0 3.0 9 ------- null}
r -t 0.298405333333333 -s 0 -d 2 -p tcp -e 1040 -c 0 -i 17 -a 0 -x {0.0 3.0 10 ------- null}
+ -t 0.298405333333333 -s 2 -d 3 -p tcp -e 1040 -c 0 -i 17 -a 0 -x {0.0 3.0 10 ------- null}
r -t 0.298624 -s 2 -d 0 -p ack -e 40 -c 0 -i 12 -a 0 -x {3.0 0.0 5 ------- null}
+ -t 0.298624 -s 0 -d 2 -p tcp -e 1040 -c 0 -i 18 -a 0 -x {0.0 3.0 11 ------- null}
- -t 0.298624 -s 0 -d 2 -p tcp -e 1040 -c 0 -i 18 -a 0 -x {0.0 3.0 11 ------- null}
h -t 0.298624 -s 0 -d 2 -p tcp -e 1040 -c 0 -i 18 -a 0 -x {0.0 3.0 -1 ------- null}
+ -t 0.298624 -s 0 -d 2 -p tcp -e 1040 -c 0 -i 19 -a 0 -x {0.0 3.0 12 ------- null}
- -t 0.300288 -s 0 -d 2 -p tcp -e 1040 -c 0 -i 19 -a 0 -x {0.0 3.0 12 ------- null}
h -t 0.300288 -s 0 -d 2 -p tcp -e 1040 -c 0 -i 19 -a 0 -x {0.0 3.0 -1 ------- null}
r -t 0.302106666666667 -s 3 -d 2 -p ack -e 40 -c 0 -i 15 -a 0 -x {3.0 0.0 6 ------- null}
+ -t 0.302106666666667 -s 2 -d 0 -p ack -e 40 -c 0 -i 15 -a 0 -x {3.0 0.0 6 ------- null}
- -t 0.302106666666667 -s 2 -d 0 -p ack -e 40 -c 0 -i 15 -a 0 -x {3.0 0.0 6 ------- null}
h -t 0.302106666666667 -s 2 -d 0 -p ack -e 40 -c 0 -i 15 -a 0 -x {3.0 0.0 -1 ------- null}
- -t 0.302288 -s 2 -d 3 -p tcp -e 1040 -c 0 -i 16 -a 0 -x {0.0 3.0 9 ------- null}
h -t 0.302288 -s 2 -d 3 -p tcp -e 1040 -c 0 -i 16 -a 0 -x {0.0 3.0 -1 ------- null}
r -t 0.302288 -s 0 -d 2 -p tcp -e 1040 -c 0 -i 18 -a 0 -x {0.0 3.0 11 ------- null}
+ -t 0.302288 -s 2 -d 3 -p tcp -e 1040 -c 0 -i 18 -a 0 -x {0.0 3.0 11 ------- null}
r -t 0.303952 -s 0 -d 2 -p tcp -e 1040 -c 0 -i 19 -a 0 -x {0.0 3.0 12 ------- null}
+ -t 0.303952 -s 2 -d 3 -p tcp -e 1040 -c 0 -i 19 -a 0 -x {0.0 3.0 12 ------- null}
r -t 0.304170666666667 -s 2 -d 0 -p ack -e 40 -c 0 -i 15 -a 0 -x {3.0 0.0 6 ------- null}
+ -t 0.304170666666667 -s 0 -d 2 -p tcp -e 1040 -c 0 -i 20 -a 0 -x {0.0 3.0 13 ------- null}
- -t 0.304170666666667 -s 0 -d 2 -p tcp -e 1040 -c 0 -i 20 -a 0 -x {0.0 3.0 13 ------- null}
h -t 0.304170666666667 -s 0 -d 2 -p tcp -e 1040 -c 0 -i 20 -a 0 -x {0.0 3.0 -1 ------- null}
+ -t 0.304170666666667 -s 0 -d 2 -p tcp -e 1040 -c 0 -i 21 -a 0 -x {0.0 3.0 14 ------- null}
- -t 0.305834666666667 -s 0 -d 2 -p tcp -e 1040 -c 0 -i 21 -a 0 -x {0.0 3.0 14 ------- null}
h -t 0.305834666666667 -s 0 -d 2 -p tcp -e 1040 -c 0 -i 21 -a 0 -x {0.0 3.0 -1 ------- null}
r -t 0.306741333333333 -s 2 -d 3 -p tcp -e 1040 -c 0 -i 13 -a 0 -x {0.0 3.0 7 ------- null}
+ -t 0.306741333333333 -s 3 -d 2 -p ack -e 40 -c 0 -i 22 -a 0 -x {3.0 0.0 7 ------- null}
- -t 0.306741333333333 -s 3 -d 2 -p ack -e 40 -c 0 -i 22 -a 0 -x {3.0 0.0 7 ------- null}
h -t 0.306741333333333 -s 3 -d 2 -p ack -e 40 -c 0 -i 22 -a 0 -x {3.0 0.0 -1 ------- null}
- -t 0.307834666666667 -s 2 -d 3 -p tcp -e 1040 -c 0 -i 17 -a 0 -x {0.0 3.0 10 ------- null}
h -t 0.307834666666667 -s 2 -d 3 -p tcp -e 1040 -c 0 -i 17 -a 0 -x {0.0 3.0 -1 ------- null}
r -t 0.307834666666667 -s 0 -d 2 -p tcp -e 1040 -c 0 -i 20 -a 0 -x {0.0 3.0 13 ------- null}
+ -t 0.307834666666667 -s 2 -d 3 -p tcp -e 1040 -c 0 -i 20 -a 0 -x {0.0 3.0 13 ------- null}
r -t 0.309498666666667 -s 0 -d 2 -p tcp -e 1040 -c 0 -i 21 -a 0 -x {0.0 3.0 14 ------- null}
+ -t 0.309498666666667 -s 2 -d 3 -p tcp -e 1040 -c 0 -i 21 -a 0 -x {0.0 3.0 14 ------- null}
r -t 0.312288 -s 2 -d 3 -p tcp -e 1040 -c 0 -i 14 -a 0 -x {0.0 3.0 8 ------- null}
+ -t 0.312288 -s 3 -d 2 -p ack -e 40 -c 0 -i 23 -a 0 -x {3.0 0.0 8 ------- null}
- -t 0.312288 -s 3 -d 2 -p ack -e 40 -c 0 -i 23 -a 0 -x {3.0 0.0 8 ------- null}
h -t 0.312288 -s 3 -d 2 -p ack -e 40 -c 0 -i 23 -a 0 -x {3.0 0.0 -1 ------- null}
- -t 0.313381333333333 -s 2 -d 3 -p tcp -e 1040 -c 0 -i 18 -a 0 -x {0.0 3.0 11 ------- null}
h -t 0.313381333333333 -s 2 -d 3 -p tcp -e 1040 -c 0 -i 18 -a 0 -x {0.0 3.0 -1 ------- null}
r -t 0.316954666666667 -s 3 -d 2 -p ack -e 40 -c 0 -i 22 -a 0 -x {3.0 0.0 7 ------- null}
+ -t 0.316954666666667 -s 2 -d 0 -p ack -e 40 -c 0 -i 22 -a 0 -x {3.0 0.0 7 ------- null}
- -t 0.316954666666667 -s 2 -d 0 -p ack -e 40 -c 0 -i 22 -a 0 -x {3.0 0.0 7 ------- null}
h -t 0.316954666666667 -s 2 -d 0 -p ack -e 40 -c 0 -i 22 -a 0 -x {3.0 0.0 -1 ------- null}
r -t 0.317834666666667 -s 2 -d 3 -p tcp -e 1040 -c 0 -i 16 -a 0 -x {0.0 3.0 9 ------- null}
+ -t 0.317834666666667 -s 3 -d 2 -p ack -e 40 -c 0 -i 24 -a 0 -x {3.0 0.0 9 ------- null}
- -t 0.317834666666667 -s 3 -d 2 -p ack -e 40 -c 0 -i 24 -a 0 -x {3.0 0.0 9 ------- null}
h -t 0.317834666666667 -s 3 -d 2 -p ack -e 40 -c 0 -i 24 -a 0 -x {3.0 0.0 -1 ------- null}
- -t 0.318928 -s 2 -d 3 -p tcp -e 1040 -c 0 -i 19 -a 0 -x {0.0 3.0 12 ------- null}
h -t 0.318928 -s 2 -d 3 -p tcp -e 1040 -c 0 -i 19 -a 0 -x {0.0 3.0 -1 ------- null}
r -t 0.319018666666667 -s 2 -d 0 -p ack -e 40 -c 0 -i 22 -a 0 -x {3.0 0.0 7 ------- null}
+ -t 0.319018666666667 -s 0 -d 2 -p tcp -e 1040 -c 0 -i 25 -a 0 -x {0.0 3.0 15 ------- null}
- -t 0.319018666666667 -s 0 -d 2 -p tcp -e 1040 -c 0 -i 25 -a 0 -x {0.0 3.0 15 ------- null}
h -t 0.319018666666667 -s 0 -d 2 -p tcp -e 1040 -c 0 -i 25 -a 0 -x {0.0 3.0 -1 ------- null}
+ -t 0.319018666666667 -s 0 -d 2 -p tcp -e 1040 -c 0 -i 26 -a 0 -x {0.0 3.0 16 ------- null}
- -t 0.320682666666667 -s 0 -d 2 -p tcp -e 1040 -c 0 -i 26 -a 0 -x {0.0 3.0 16 ------- null}
h -t 0.320682666666667 -s 0 -d 2 -p tcp -e 1040 -c 0 -i 26 -a 0 -x {0.0 3.0 -1 ------- null}
r -t 0.322501333333333 -s 3 -d 2 -p ack -e 40 -c 0 -i 23 -a 0 -x {3.0 0.0 8 ------- null}
+ -t 0.322501333333333 -s 2 -d 0 -p ack -e 40 -c 0 -i 23 -a 0 -x {3.0 0.0 8 ------- null}
- -t 0.322501333333333 -s 2 -d 0 -p ack -e 40 -c 0 -i 23 -a 0 -x {3.0 0.0 8 ------- null}
h -t 0.322501333333333 -s 2 -d 0 -p ack -e 40 -c 0 -i 23 -a 0 -x {3.0 0.0 -1 ------- null}
r -t 0.322682666666667 -s 0 -d 2 -p tcp -e 1040 -c 0 -i 25 -a 0 -x {0.0 3.0 15 ------- null}
+ -t 0.322682666666667 -s 2 -d 3 -p tcp -e 1040 -c 0 -i 25 -a 0 -x {0.0 3.0 15 ------- null}
r -t 0.323381333333333 -s 2 -d 3 -p tcp -e 1040 -c 0 -i 17 -a 0 -x {0.0 3.0 10 ------- null}
+ -t 0.323381333333333 -s 3 -d 2 -p ack -e 40 -c 0 -i 27 -a 0 -x {3.0 0.0 10 ------- null}
- -t 0.323381333333333 -s 3 -d 2 -p ack -e 40 -c 0 -i 27 -a 0 -x {3.0 0.0 10 ------- null}
h -t 0.323381333333333 -s 3 -d 2 -p ack -e 40 -c 0 -i 27 -a 0 -x {3.0 0.0 -1 ------- null}
r -t 0.324346666666667 -s 0 -d 2 -p tcp -e 1040 -c 0 -i 26 -a 0 -x {0.0 3.0 16 ------- null}
+ -t 0.324346666666667 -s 2 -d 3 -p tcp -e 1040 -c 0 -i 26 -a 0 -x {0.0 3.0 16 ------- null}
- -t 0.324474666666667 -s 2 -d 3 -p tcp -e 1040 -c 0 -i 20 -a 0 -x {0.0 3.0 13 ------- null}
h -t 0.324474666666667 -s 2 -d 3 -p tcp -e 1040 -c 0 -i 20 -a 0 -x {0.0 3.0 -1 ------- null}
r -t 0.324565333333333 -s 2 -d 0 -p ack -e 40 -c 0 -i 23 -a 0 -x {3.0 0.0 8 ------- null}
+ -t 0.324565333333333 -s 0 -d 2 -p tcp -e 1040 -c 0 -i 28 -a 0 -x {0.0 3.0 17 ------- null}
- -t 0.324565333333333 -s 0 -d 2 -p tcp -e 1040 -c 0 -i 28 -a 0 -x {0.0 3.0 17 ------- null}
h -t 0.324565333333333 -s 0 -d 2 -p tcp -e 1040 -c 0 -i 28 -a 0 -x {0.0 3.0 -1 ------- null}
+ -t 0.324565333333333 -s 0 -d 2 -p tcp -e 1040 -c 0 -i 29 -a 0 -x {0.0 3.0 18 ------- null}
- -t 0.326229333333333 -s 0 -d 2 -p tcp -e 1040 -c 0 -i 29 -a 0 -x {0.0 3.0 18 ------- null}
h -t 0.326229333333333 -s 0 -d 2 -p tcp -e 1040 -c 0 -i 29 -a 0 -x {0.0 3.0 -1 ------- null}
r -t 0.328048 -s 3 -d 2 -p ack -e 40 -c 0 -i 24 -a 0 -x {3.0 0.0 9 ------- null}
+ -t 0.328048 -s 2 -d 0 -p ack -e 40 -c 0 -i 24 -a 0 -x {3.0 0.0 9 ------- null}
- -t 0.328048 -s 2 -d 0 -p ack -e 40 -c 0 -i 24 -a 0 -x {3.0 0.0 9 ------- null}
h -t 0.328048 -s 2 -d 0 -p ack -e 40 -c 0 -i 24 -a 0 -x {3.0 0.0 -1 ------- null}
r -t 0.328229333333333 -s 0 -d 2 -p tcp -e 1040 -c 0 -i 28 -a 0 -x {0.0 3.0 17 ------- null}
+ -t 0.328229333333333 -s 2 -d 3 -p tcp -e 1040 -c 0 -i 28 -a 0 -x {0.0 3.0 17 ------- null}
r -t 0.328928 -s 2 -d 3 -p tcp -e 1040 -c 0 -i 18 -a 0 -x {0.0 3.0 11 ------- null}
+ -t 0.328928 -s 3 -d 2 -p ack -e 40 -c 0 -i 30 -a 0 -x {3.0 0.0 11 ------- null}
- -t 0.328928 -s 3 -d 2 -p ack -e 40 -c 0 -i 30 -a 0 -x {3.0 0.0 11 ------- null}
h -t 0.328928 -s 3 -d 2 -p ack -e 40 -c 0 -i 30 -a 0 -x {3.0 0.0 -1 ------- null}
r -t 0.329893333333333 -s 0 -d 2 -p tcp -e 1040 -c 0 -i 29 -a 0 -x {0.0 3.0 18 ------- null}
+ -t 0.329893333333333 -s 2 -d 3 -p tcp -e 1040 -c 0 -i 29 -a 0 -x {0.0 3.0 18 ------- null}
- -t 0.330021333333333 -s 2 -d 3 -p tcp -e 1040 -c 0 -i 21 -a 0 -x {0.0 3.0 14 ------- null}
h -t 0.330021333333333 -s 2 -d 3 -p tcp -e 1040 -c 0 -i 21 -a 0 -x {0.0 3.0 -1 ------- null}
r -t 0.330112 -s 2 -d 0 -p ack -e 40 -c 0 -i 24 -a 0 -x {3.0 0.0 9 ------- null}
+ -t 0.330112 -s 0 -d 2 -p tcp -e 1040 -c 0 -i 31 -a 0 -x {0.0 3.0 19 ------- null}
- -t 0.330112 -s 0 -d 2 -p tcp -e 1040 -c 0 -i 31 -a 0 -x {0.0 3.0 19 ------- null}
h -t 0.330112 -s 0 -d 2 -p tcp -e 1040 -c 0 -i 31 -a 0 -x {0.0 3.0 -1 ------- null}
+ -t 0.330112 -s 0 -d 2 -p tcp -e 1040 -c 0 -i 32 -a 0 -x {0.0 3.0 20 ------- null}
- -t 0.331776 -s 0 -d 2 -p tcp -e 1040 -c 0 -i 32 -a 0 -x {0.0 3.0 20 ------- null}
h -t 0.331776 -s 0 -d 2 -p tcp -e 1040 -c 0 -i 32 -a 0 -x {0.0 3.0 -1 ------- null}
r -t 0.333594666666667 -s 3 -d 2 -p ack -e 40 -c 0 -i 27 -a 0 -x {3.0 0.0 10 ------- null}
+ -t 0.333594666666667 -s 2 -d 0 -p ack -e 40 -c 0 -i 27 -a 0 -x {3.0 0.0 10 ------- null}
- -t 0.333594666666667 -s 2 -d 0 -p ack -e 40 -c 0 -i 27 -a 0 -x {3.0 0.0 10 ------- null}
h -t 0.333594666666667 -s 2 -d 0 -p ack -e 40 -c 0 -i 27 -a 0 -x {3.0 0.0 -1 ------- null}
r -t 0.333776 -s 0 -d 2 -p tcp -e 1040 -c 0 -i 31 -a 0 -x {0.0 3.0 19 ------- null}
+ -t 0.333776 -s 2 -d 3 -p tcp -e 1040 -c 0 -i 31 -a 0 -x {0.0 3.0 19 ------- null}
r -t 0.334474666666667 -s 2 -d 3 -p tcp -e 1040 -c 0 -i 19 -a 0 -x {0.0 3.0 12 ------- null}
+ -t 0.334474666666667 -s 3 -d 2 -p ack -e 40 -c 0 -i 33 -a 0 -x {3.0 0.0 12 ------- null}
- -t 0.334474666666667 -s 3 -d 2 -p ack -e 40 -c 0 -i 33 -a 0 -x {3.0 0.0 12 ------- null}
h -t 0.334474666666667 -s 3 -d 2 -p ack -e 40 -c 0 -i 33 -a 0 -x {3.0 0.0 -1 ------- null}
r -t 0.33544 -s 0 -d 2 -p tcp -e 1040 -c 0 -i 32 -a 0 -x {0.0 3.0 20 ------- null}
+ -t 0.33544 -s 2 -d 3 -p tcp -e 1040 -c 0 -i 32 -a 0 -x {0.0 3.0 20 ------- null}
- -t 0.335568 -s 2 -d 3 -p tcp -e 1040 -c 0 -i 25 -a 0 -x {0.0 3.0 15 ------- null}
h -t 0.335568 -s 2 -d 3 -p tcp -e 1040 -c 0 -i 25 -a 0 -x {0.0 3.0 -1 ------- null}
r -t 0.335658666666667 -s 2 -d 0 -p ack -e 40 -c 0 -i 27 -a 0 -x {3.0 0.0 10 ------- null}
+ -t 0.335658666666667 -s 0 -d 2 -p tcp -e 1040 -c 0 -i 34 -a 0 -x {0.0 3.0 21 ------- null}
- -t 0.335658666666667 -s 0 -d 2 -p tcp -e 1040 -c 0 -i 34 -a 0 -x {0.0 3.0 21 ------- null}
h -t 0.335658666666667 -s 0 -d 2 -p tcp -e 1040 -c 0 -i 34 -a 0 -x {0.0 3.0 -1 ------- null}
+ -t 0.335658666666667 -s 0 -d 2 -p tcp -e 1040 -c 0 -i 35 -a 0 -x {0.0 3.0 22 ------- null}
- -t 0.337322666666667 -s 0 -d 2 -p tcp -e 1040 -c 0 -i 35 -a 0 -x {0.0 3.0 22 ------- null}
h -t 0.337322666666667 -s 0 -d 2 -p tcp -e 1040 -c 0 -i 35 -a 0 -x {0.0 3.0 -1 ------- null}
r -t 0.339141333333333 -s 3 -d 2 -p ack -e 40 -c 0 -i 30 -a 0 -x {3.0 0.0 11 ------- null}
+ -t 0.339141333333333 -s 2 -d 0 -p ack -e 40 -c 0 -i 30 -a 0 -x {3.0 0.0 11 ------- null}
- -t 0.339141333333333 -s 2 -d 0 -p ack -e 40 -c 0 -i 30 -a 0 -x {3.0 0.0 11 ------- null}
h -t 0.339141333333333 -s 2 -d 0 -p ack -e 40 -c 0 -i 30 -a 0 -x {3.0 0.0 -1 ------- null}
r -t 0.339322666666667 -s 0 -d 2 -p tcp -e 1040 -c 0 -i 34 -a 0 -x {0.0 3.0 21 ------- null}
+ -t 0.339322666666667 -s 2 -d 3 -p tcp -e 1040 -c 0 -i 34 -a 0 -x {0.0 3.0 21 ------- null}
r -t 0.340021333333333 -s 2 -d 3 -p tcp -e 1040 -c 0 -i 20 -a 0 -x {0.0 3.0 13 ------- null}
+ -t 0.340021333333333 -s 3 -d 2 -p ack -e 40 -c 0 -i 36 -a 0 -x {3.0 0.0 13 ------- null}
- -t 0.340021333333333 -s 3 -d 2 -p ack -e 40 -c 0 -i 36 -a 0 -x {3.0 0.0 13 ------- null}
h -t 0.340021333333333 -s 3 -d 2 -p ack -e 40 -c 0 -i 36 -a 0 -x {3.0 0.0 -1 ------- null}
r -t 0.340986666666667 -s 0 -d 2 -p tcp -e 1040 -c 0 -i 35 -a 0 -x {0.0 3.0 22 ------- null}
+ -t 0.340986666666667 -s 2 -d 3 -p tcp -e 1040 -c 0 -i 35 -a 0 -x {0.0 3.0 22 ------- null}
- -t 0.341114666666667 -s 2 -d 3 -p tcp -e 1040 -c 0 -i 26 -a 0 -x {0.0 3.0 16 ------- null}
h -t 0.341114666666667 -s 2 -d 3 -p tcp -e 1040 -c 0 -i 26 -a 0 -x {0.0 3.0 -1 ------- null}
r -t 0.341205333333333 -s 2 -d 0 -p ack -e 40 -c 0 -i 30 -a 0 -x {3.0 0.0 11 ------- null}
+ -t 0.341205333333333 -s 0 -d 2 -p tcp -e 1040 -c 0 -i 37 -a 0 -x {0.0 3.0 23 ------- null}
- -t 0.341205333333333 -s 0 -d 2 -p tcp -e 1040 -c 0 -i 37 -a 0 -x {0.0 3.0 23 ------- null}
h -t 0.341205333333333 -s 0 -d 2 -p tcp -e 1040 -c 0 -i 37 -a 0 -x {0.0 3.0 -1 ------- null}
+ -t 0.341205333333333 -s 0 -d 2 -p tcp -e 1040 -c 0 -i 38 -a 0 -x {0.0 3.0 24 ------- null}
- -t 0.342869333333333 -s 0 -d 2 -p tcp -e 1040 -c 0 -i 38 -a 0 -x {0.0 3.0 24 ------- null}
h -t 0.342869333333333 -s 0 -d 2 -p tcp -e 1040 -c 0 -i 38 -a 0 -x {0.0 3.0 -1 ------- null}
r -t 0.344688 -s 3 -d 2 -p ack -e 40 -c 0 -i 33 -a 0 -x {3.0 0.0 12 ------- null}
+ -t 0.344688 -s 2 -d 0 -p ack -e 40 -c 0 -i 33 -a 0 -x {3.0 0.0 12 ------- null}
- -t 0.344688 -s 2 -d 0 -p ack -e 40 -c 0 -i 33 -a 0 -x {3.0 0.0 12 ------- null}
h -t 0.344688 -s 2 -d 0 -p ack -e 40 -c 0 -i 33 -a 0 -x {3.0 0.0 -1 ------- null}
r -t 0.344869333333333 -s 0 -d 2 -p tcp -e 1040 -c 0 -i 37 -a 0 -x {0.0 3.0 23 ------- null}
+ -t 0.344869333333333 -s 2 -d 3 -p tcp -e 1040 -c 0 -i 37 -a 0 -x {0.0 3.0 23 ------- null}
r -t 0.345568 -s 2 -d 3 -p tcp -e 1040 -c 0 -i 21 -a 0 -x {0.0 3.0 14 ------- null}
+ -t 0.345568 -s 3 -d 2 -p ack -e 40 -c 0 -i 39 -a 0 -x {3.0 0.0 14 ------- null}
- -t 0.345568 -s 3 -d 2 -p ack -e 40 -c 0 -i 39 -a 0 -x {3.0 0.0 14 ------- null}
h -t 0.345568 -s 3 -d 2 -p ack -e 40 -c 0 -i 39 -a 0 -x {3.0 0.0 -1 ------- null}
r -t 0.346533333333333 -s 0 -d 2 -p tcp -e 1040 -c 0 -i 38 -a 0 -x {0.0 3.0 24 ------- null}
+ -t 0.346533333333333 -s 2 -d 3 -p tcp -e 1040 -c 0 -i 38 -a 0 -x {0.0 3.0 24 ------- null}
- -t 0.346661333333333 -s 2 -d 3 -p tcp -e 1040 -c 0 -i 28 -a 0 -x {0.0 3.0 17 ------- null}
h -t 0.346661333333333 -s 2 -d 3 -p tcp -e 1040 -c 0 -i 28 -a 0 -x {0.0 3.0 -1 ------- null}
r -t 0.346752 -s 2 -d 0 -p ack -e 40 -c 0 -i 33 -a 0 -x {3.0 0.0 12 ------- null}
+ -t 0.346752 -s 0 -d 2 -p tcp -e 1040 -c 0 -i 40 -a 0 -x {0.0 3.0 25 ------- null}
- -t 0.346752 -s 0 -d 2 -p tcp -e 1040 -c 0 -i 40 -a 0 -x {0.0 3.0 25 ------- null}
h -t 0.346752 -s 0 -d 2 -p tcp -e 1040 -c 0 -i 40 -a 0 -x {0.0 3.0 -1 ------- null}
+ -t 0.346752 -s 0 -d 2 -p tcp -e 1040 -c 0 -i 41 -a 0 -x {0.0 3.0 26 ------- null}
- -t 0.348416 -s 0 -d 2 -p tcp -e 1040 -c 0 -i 41 -a 0 -x {0.0 3.0 26 ------- null}
h -t 0.348416 -s 0 -d 2 -p tcp -e 1040 -c 0 -i 41 -a 0 -x {0.0 3.0 -1 ------- null}
r -t 0.350234666666667 -s 3 -d 2 -p ack -e 40 -c 0 -i 36 -a 0 -x {3.0 0.0 13 ------- null}
+ -t 0.350234666666667 -s 2 -d 0 -p ack -e 40 -c 0 -i 36 -a 0 -x {3.0 0.0 13 ------- null}
- -t 0.350234666666667 -s 2 -d 0 -p ack -e 40 -c 0 -i 36 -a 0 -x {3.0 0.0 13 ------- null}
h -t 0.350234666666667 -s 2 -d 0 -p ack -e 40 -c 0 -i 36 -a 0 -x {3.0 0.0 -1 ------- null}
r -t 0.350416 -s 0 -d 2 -p tcp -e 1040 -c 0 -i 40 -a 0 -x {0.0 3.0 25 ------- null}
+ -t 0.350416 -s 2 -d 3 -p tcp -e 1040 -c 0 -i 40 -a 0 -x {0.0 3.0 25 ------- null}
r -t 0.351114666666667 -s 2 -d 3 -p tcp -e 1040 -c 0 -i 25 -a 0 -x {0.0 3.0 15 ------- null}
+ -t 0.351114666666667 -s 3 -d 2 -p ack -e 40 -c 0 -i 42 -a 0 -x {3.0 0.0 15 ------- null}
- -t 0.351114666666667 -s 3 -d 2 -p ack -e 40 -c 0 -i 42 -a 0 -x {3.0 0.0 15 ------- null}
h -t 0.351114666666667 -s 3 -d 2 -p ack -e 40 -c 0 -i 42 -a 0 -x {3.0 0.0 -1 ------- null}
r -t 0.35208 -s 0 -d 2 -p tcp -e 1040 -c 0 -i 41 -a 0 -x {0.0 3.0 26 ------- null}
+ -t 0.35208 -s 2 -d 3 -p tcp -e 1040 -c 0 -i 41 -a 0 -x {0.0 3.0 26 ------- null}
- -t 0.352208 -s 2 -d 3 -p tcp -e 1040 -c 0 -i 29 -a 0 -x {0.0 3.0 18 ------- null}
h -t 0.352208 -s 2 -d 3 -p tcp -e 1040 -c 0 -i 29 -a 0 -x {0.0 3.0 -1 ------- null}
r -t 0.352298666666667 -s 2 -d 0 -p ack -e 40 -c 0 -i 36 -a 0 -x {3.0 0.0 13 ------- null}
+ -t 0.352298666666667 -s 0 -d 2 -p tcp -e 1040 -c 0 -i 43 -a 0 -x {0.0 3.0 27 ------- null}
- -t 0.352298666666667 -s 0 -d 2 -p tcp -e 1040 -c 0 -i 43 -a 0 -x {0.0 3.0 27 ------- null}
h -t 0.352298666666667 -s 0 -d 2 -p tcp -e 1040 -c 0 -i 43 -a 0 -x {0.0 3.0 -1 ------- null}
+ -t 0.352298666666667 -s 0 -d 2 -p tcp -e 1040 -c 0 -i 44 -a 0 -x {0.0 3.0 28 ------- null}
- -t 0.353962666666667 -s 0 -d 2 -p tcp -e 1040 -c 0 -i 44 -a 0 -x {0.0 3.0 28 ------- null}
h -t 0.353962666666667 -s 0 -d 2 -p tcp -e 1040 -c 0 -i 44 -a 0 -x {0.0 3.0 -1 ------- null}
r -t 0.355781333333333 -s 3 -d 2 -p ack -e 40 -c 0 -i 39 -a 0 -x {3.0 0.0 14 ------- null}
+ -t 0.355781333333333 -s 2 -d 0 -p ack -e 40 -c 0 -i 39 -a 0 -x {3.0 0.0 14 ------- null}
- -t 0.355781333333333 -s 2 -d 0 -p ack -e 40 -c 0 -i 39 -a 0 -x {3.0 0.0 14 ------- null}
h -t 0.355781333333333 -s 2 -d 0 -p ack -e 40 -c 0 -i 39 -a 0 -x {3.0 0.0 -1 ------- null}
r -t 0.355962666666667 -s 0 -d 2 -p tcp -e 1040 -c 0 -i 43 -a 0 -x {0.0 3.0 27 ------- null}
+ -t 0.355962666666667 -s 2 -d 3 -p tcp -e 1040 -c 0 -i 43 -a 0 -x {0.0 3.0 27 ------- null}
r -t 0.356661333333333 -s 2 -d 3 -p tcp -e 1040 -c 0 -i 26 -a 0 -x {0.0 3.0 16 ------- null}
+ -t 0.356661333333333 -s 3 -d 2 -p ack -e 40 -c 0 -i 45 -a 0 -x {3.0 0.0 16 ------- null}
- -t 0.356661333333333 -s 3 -d 2 -p ack -e 40 -c 0 -i 45 -a 0 -x {3.0 0.0 16 ------- null}
h -t 0.356661333333333 -s 3 -d 2 -p ack -e 40 -c 0 -i 45 -a 0 -x {3.0 0.0 -1 ------- null}
r -t 0.357626666666667 -s 0 -d 2 -p tcp -e 1040 -c 0 -i 44 -a 0 -x {0.0 3.0 28 ------- null}
+ -t 0.357626666666667 -s 2 -d 3 -p tcp -e 1040 -c 0 -i 44 -a 0 -x {0.0 3.0 28 ------- null}
d -t 0.357626666666667 -s 2 -d 3 -p tcp -e 1040 -c 0 -i 44 -a 0 -x {0.0 3.0 28 ------- null}
- -t 0.357754666666666 -s 2 -d 3 -p tcp -e 1040 -c 0 -i 31 -a 0 -x {0.0 3.0 19 ------- null}
h -t 0.357754666666666 -s 2 -d 3 -p tcp -e 1040 -c 0 -i 31 -a 0 -x {0.0 3.0 -1 ------- null}
r -t 0.357845333333333 -s 2 -d 0 -p ack -e 40 -c 0 -i 39 -a 0 -x {3.0 0.0 14 ------- null}