+ 0.2 0 2 tcp 40 ------- 0 0.0 3.0 0 0
- 0.2 0 2 tcp 40 ------- 0 0.0 3.0 0 0
r 0.202064 0 2 tcp 40 ------- 0 0.0 3.0 0 0
+ 0.202064 2 3 tcp 40 ------- 0 0.0 3.0 0 0
- 0.202064 2 3 tcp 40 ------- 0 0.0 3.0 0 0
r 0.212277 2 3 tcp 40 ------- 0 0.0 3.0 0 0
+ 0.212277 3 2 ack 40 ------- 0 3.0 0.0 0 1
- 0.212277 3 2 ack 40 ------- 0 3.0 0.0 0 1
r 0.222491 3 2 ack 40 ------- 0 3.0 0.0 0 1
+ 0.222491 2 0 ack 40 ------- 0 3.0 0.0 0 1
- 0.222491 2 0 ack 40 ------- 0 3.0 0.0 0 1
r 0.224555 2 0 ack 40 ------- 0 3.0 0.0 0 1
+ 0.224555 0 2 tcp 1040 ------- 0 0.0 3.0 1 2
- 0.224555 0 2 tcp 1040 ------- 0 0.0 3.0 1 2
+ 0.224555 0 2 tcp 1040 ------- 0 0.0 3.0 2 3
- 0.226219 0 2 tcp 1040 ------- 0 0.0 3.0 2 3
r 0.228219 0 2 tcp 1040 ------- 0 0.0 3.0 1 2
+ 0.228219 2 3 tcp 1040 ------- 0 0.0 3.0 1 2
- 0.228219 2 3 tcp 1040 ------- 0 0.0 3.0 1 2
r 0.229883 0 2 tcp 1040 ------- 0 0.0 3.0 2 3
+ 0.229883 2 3 tcp 1040 ------- 0 0.0 3.0 2 3
- 0.233765 2 3 tcp 1040 ------- 0 0.0 3.0 2 3
r 0.243765 2 3 tcp 1040 ------- 0 0.0 3.0 1 2
+ 0.243765 3 2 ack 40 ------- 0 3.0 0.0 1 4
- 0.243765 3 2 ack 40 ------- 0 3.0 0.0 1 4
r 0.249312 2 3 tcp 1040 ------- 0 0.0 3.0 2 3
+ 0.249312 3 2 ack 40 ------- 0 3.0 0.0 2 5
- 0.249312 3 2 ack 40 ------- 0 3.0 0.0 2 5
r 0.253979 3 2 ack 40 ------- 0 3.0 0.0 1 4
+ 0.253979 2 0 ack 40 ------- 0 3.0 0.0 1 4
- 0.253979 2 0 ack 40 ------- 0 3.0 0.0 1 4
r 0.256043 2 0 ack 40 ------- 0 3.0 0.0 1 4
+ 0.256043 0 2 tcp 1040 ------- 0 0.0 3.0 3 6
- 0.256043 0 2 tcp 1040 ------- 0 0.0 3.0 3 6
+ 0.256043 0 2 tcp 1040 ------- 0 0.0 3.0 4 7
- 0.257707 0 2 tcp 1040 ------- 0 0.0 3.0 4 7
r 0.259525 3 2 ack 40 ------- 0 3.0 0.0 2 5
+ 0.259525 2 0 ack 40 ------- 0 3.0 0.0 2 5
- 0.259525 2 0 ack 40 ------- 0 3.0 0.0 2 5
r 0.259707 0 2 tcp 1040 ------- 0 0.0 3.0 3 6
+ 0.259707 2 3 tcp 1040 ------- 0 0.0 3.0 3 6
- 0.259707 2 3 tcp 1040 ------- 0 0.0 3.0 3 6
r 0.261371 0 2 tcp 1040 ------- 0 0.0 3.0 4 7
+ 0.261371 2 3 tcp 1040 ------- 0 0.0 3.0 4 7
r 0.261589 2 0 ack 40 ------- 0 3.0 0.0 2 5
+ 0.261589 0 2 tcp 1040 ------- 0 0.0 3.0 5 8
- 0.261589 0 2 tcp 1040 ------- 0 0.0 3.0 5 8
+ 0.261589 0 2 tcp 1040 ------- 0 0.0 3.0 6 9
- 0.263253 0 2 tcp 1040 ------- 0 0.0 3.0 6 9
- 0.265253 2 3 tcp 1040 ------- 0 0.0 3.0 4 7
r 0.265253 0 2 tcp 1040 ------- 0 0.0 3.0 5 8
+ 0.265253 2 3 tcp 1040 ------- 0 0.0 3.0 5 8
r 0.266917 0 2 tcp 1040 ------- 0 0.0 3.0 6 9
+ 0.266917 2 3 tcp 1040 ------- 0 0.0 3.0 6 9
- 0.2708 2 3 tcp 1040 ------- 0 0.0 3.0 5 8
r 0.275253 2 3 tcp 1040 ------- 0 0.0 3.0 3 6
+ 0.275253 3 2 ack 40 ------- 0 3.0 0.0 3 10
- 0.275253 3 2 ack 40 ------- 0 3.0 0.0 3 10
- 0.276347 2 3 tcp 1040 ------- 0 0.0 3.0 6 9
r 0.2808 2 3 tcp 1040 ------- 0 0.0 3.0 4 7
+ 0.2808 3 2 ack 40 ------- 0 3.0 0.0 4 11
- 0.2808 3 2 ack 40 ------- 0 3.0 0.0 4 11
r 0.285467 3 2 ack 40 ------- 0 3.0 0.0 3 10
+ 0.285467 2 0 ack 40 ------- 0 3.0 0.0 3 10
- 0.285467 2 0 ack 40 ------- 0 3.0 0.0 3 10
r 0.286347 2 3 tcp 1040 ------- 0 0.0 3.0 5 8
+ 0.286347 3 2 ack 40 ------- 0 3.0 0.0 5 12
- 0.286347 3 2 ack 40 ------- 0 3.0 0.0 5 12
r 0.287531 2 0 ack 40 ------- 0 3.0 0.0 3 10
+ 0.287531 0 2 tcp 1040 ------- 0 0.0 3.0 7 13
- 0.287531 0 2 tcp 1040 ------- 0 0.0 3.0 7 13
+ 0.287531 0 2 tcp 1040 ------- 0 0.0 3.0 8 14
- 0.289195 0 2 tcp 1040 ------- 0 0.0 3.0 8 14
r 0.291013 3 2 ack 40 ------- 0 3.0 0.0 4 11
+ 0.291013 2 0 ack 40 ------- 0 3.0 0.0 4 11
- 0.291013 2 0 ack 40 ------- 0 3.0 0.0 4 11
r 0.291195 0 2 tcp 1040 ------- 0 0.0 3.0 7 13
+ 0.291195 2 3 tcp 1040 ------- 0 0.0 3.0 7 13
- 0.291195 2 3 tcp 1040 ------- 0 0.0 3.0 7 13
r 0.291893 2 3 tcp 1040 ------- 0 0.0 3.0 6 9
+ 0.291893 3 2 ack 40 ------- 0 3.0 0.0 6 15
- 0.291893 3 2 ack 40 ------- 0 3.0 0.0 6 15
r 0.292859 0 2 tcp 1040 ------- 0 0.0 3.0 8 14
+ 0.292859 2 3 tcp 1040 ------- 0 0.0 3.0 8 14
r 0.293077 2 0 ack 40 ------- 0 3.0 0.0 4 11
+ 0.293077 0 2 tcp 1040 ------- 0 0.0 3.0 9 16
- 0.293077 0 2 tcp 1040 ------- 0 0.0 3.0 9 16
+ 0.293077 0 2 tcp 1040 ------- 0 0.0 3.0 10 17
- 0.294741 0 2 tcp 1040 ------- 0 0.0 3.0 10 17
r 0.29656 3 2 ack 40 ------- 0 3.0 0.0 5 12
+ 0.29656 2 0 ack 40 ------- 0 3.0 0.0 5 12
- 0.29656 2 0 ack 40 ------- 0 3.0 0.0 5 12
- 0.296741 2 3 tcp 1040 ------- 0 0.0 3.0 8 14
r 0.296741 0 2 tcp 1040 ------- 0 0.0 3.0 9 16
+ 0.296741 2 3 tcp 1040 ------- 0 0.0 3.0 9 16
r 0.298405 0 2 tcp 1040 ------- 0 0.0 3.0 10 17
+ 0.298405 2 3 tcp 1040 ------- 0 0.0 3.0 10 17
r 0.298624 2 0 ack 40 ------- 0 3.0 0.0 5 12
+ 0.298624 0 2 tcp 1040 ------- 0 0.0 3.0 11 18
- 0.298624 0 2 tcp 1040 ------- 0 0.0 3.0 11 18
+ 0.298624 0 2 tcp 1040 ------- 0 0.0 3.0 12 19
- 0.300288 0 2 tcp 1040 ------- 0 0.0 3.0 12 19
r 0.302107 3 2 ack 40 ------- 0 3.0 0.0 6 15
+ 0.302107 2 0 ack 40 ------- 0 3.0 0.0 6 15
- 0.302107 2 0 ack 40 ------- 0 3.0 0.0 6 15
- 0.302288 2 3 tcp 1040 ------- 0 0.0 3.0 9 16
r 0.302288 0 2 tcp 1040 ------- 0 0.0 3.0 11 18
+ 0.302288 2 3 tcp 1040 ------- 0 0.0 3.0 11 18
r 0.303952 0 2 tcp 1040 ------- 0 0.0 3.0 12 19
+ 0.303952 2 3 tcp 1040 ------- 0 0.0 3.0 12 19
r 0.304171 2 0 ack 40 ------- 0 3.0 0.0 6 15
+ 0.304171 0 2 tcp 1040 ------- 0 0.0 3.0 13 20
- 0.304171 0 2 tcp 1040 ------- 0 0.0 3.0 13 20
+ 0.304171 0 2 tcp 1040 ------- 0 0.0 3.0 14 21
- 0.305835 0 2 tcp 1040 ------- 0 0.0 3.0 14 21
r 0.306741 2 3 tcp 1040 ------- 0 0.0 3.0 7 13
+ 0.306741 3 2 ack 40 ------- 0 3.0 0.0 7 22
- 0.306741 3 2 ack 40 ------- 0 3.0 0.0 7 22
- 0.307835 2 3 tcp 1040 ------- 0 0.0 3.0 10 17
r 0.307835 0 2 tcp 1040 ------- 0 0.0 3.0 13 20
+ 0.307835 2 3 tcp 1040 ------- 0 0.0 3.0 13 20
r 0.309499 0 2 tcp 1040 ------- 0 0.0 3.0 14 21
+ 0.309499 2 3 tcp 1040 ------- 0 0.0 3.0 14 21
r 0.312288 2 3 tcp 1040 ------- 0 0.0 3.0 8 14
+ 0.312288 3 2 ack 40 ------- 0 3.0 0.0 8 23
- 0.312288 3 2 ack 40 ------- 0 3.0 0.0 8 23
- 0.313381 2 3 tcp 1040 ------- 0 0.0 3.0 11 18
r 0.316955 3 2 ack 40 ------- 0 3.0 0.0 7 22
+ 0.316955 2 0 ack 40 ------- 0 3.0 0.0 7 22
- 0.316955 2 0 ack 40 ------- 0 3.0 0.0 7 22
r 0.317835 2 3 tcp 1040 ------- 0 0.0 3.0 9 16
+ 0.317835 3 2 ack 40 ------- 0 3.0 0.0 9 24
- 0.317835 3 2 ack 40 ------- 0 3.0 0.0 9 24
- 0.318928 2 3 tcp 1040 ------- 0 0.0 3.0 12 19
r 0.319019 2 0 ack 40 ------- 0 3.0 0.0 7 22
+ 0.319019 0 2 tcp 1040 ------- 0 0.0 3.0 15 25
- 0.319019 0 2 tcp 1040 ------- 0 0.0 3.0 15 25
+ 0.319019 0 2 tcp 1040 ------- 0 0.0 3.0 16 26
- 0.320683 0 2 tcp 1040 ------- 0 0.0 3.0 16 26
r 0.322501 3 2 ack 40 ------- 0 3.0 0.0 8 23
+ 0.322501 2 0 ack 40 ------- 0 3.0 0.0 8 23
- 0.322501 2 0 ack 40 ------- 0 3.0 0.0 8 23
r 0.322683 0 2 tcp 1040 ------- 0 0.0 3.0 15 25
+ 0.322683 2 3 tcp 1040 ------- 0 0.0 3.0 15 25
r 0.323381 2 3 tcp 1040 ------- 0 0.0 3.0 10 17
+ 0.323381 3 2 ack 40 ------- 0 3.0 0.0 10 27
- 0.323381 3 2 ack 40 ------- 0 3.0 0.0 10 27
r 0.324347 0 2 tcp 1040 ------- 0 0.0 3.0 16 26
+ 0.324347 2 3 tcp 1040 ------- 0 0.0 3.0 16 26
- 0.324475 2 3 tcp 1040 ------- 0 0.0 3.0 13 20
r 0.324565 2 0 ack 40 ------- 0 3.0 0.0 8 23
+ 0.324565 0 2 tcp 1040 ------- 0 0.0 3.0 17 28
- 0.324565 0 2 tcp 1040 ------- 0 0.0 3.0 17 28
+ 0.324565 0 2 tcp 1040 ------- 0 0.0 3.0 18 29
- 0.326229 0 2 tcp 1040 ------- 0 0.0 3.0 18 29
r 0.328048 3 2 ack 40 ------- 0 3.0 0.0 9 24
+ 0.328048 2 0 ack 40 ------- 0 3.0 0.0 9 24
- 0.328048 2 0 ack 40 ------- 0 3.0 0.0 9 24
r 0.328229 0 2 tcp 1040 ------- 0 0.0 3.0 17 28
+ 0.328229 2 3 tcp 1040 ------- 0 0.0 3.0 17 28
r 0.328928 2 3 tcp 1040 ------- 0 0.0 3.0 11 18
+ 0.328928 3 2 ack 40 ------- 0 3.0 0.0 11 30
- 0.328928 3 2 ack 40 ------- 0 3.0 0.0 11 30
r 0.329893 0 2 tcp 1040 ------- 0 0.0 3.0 18 29
+ 0.329893 2 3 tcp 1040 ------- 0 0.0 3.0 18 29
- 0.330021 2 3 tcp 1040 ------- 0 0.0 3.0 14 21
r 0.330112 2 0 ack 40 ------- 0 3.0 0.0 9 24
+ 0.330112 0 2 tcp 1040 ------- 0 0.0 3.0 19 31
- 0.330112 0 2 tcp 1040 ------- 0 0.0 3.0 19 31
+ 0.330112 0 2 tcp 1040 ------- 0 0.0 3.0 20 32
- 0.331776 0 2 tcp 1040 ------- 0 0.0 3.0 20 32
r 0.333595 3 2 ack 40 ------- 0 3.0 0.0 10 27
+ 0.333595 2 0 ack 40 ------- 0 3.0 0.0 10 27
- 0.333595 2 0 ack 40 ------- 0 3.0 0.0 10 27
r 0.333776 0 2 tcp 1040 ------- 0 0.0 3.0 19 31
+ 0.333776 2 3 tcp 1040 ------- 0 0.0 3.0 19 31
r 0.334475 2 3 tcp 1040 ------- 0 0.0 3.0 12 19
+ 0.334475 3 2 ack 40 ------- 0 3.0 0.0 12 33
- 0.334475 3 2 ack 40 ------- 0 3.0 0.0 12 33
r 0.33544 0 2 tcp 1040 ------- 0 0.0 3.0 20 32
+ 0.33544 2 3 tcp 1040 ------- 0 0.0 3.0 20 32
- 0.335568 2 3 tcp 1040 ------- 0 0.0 3.0 15 25
r 0.335659 2 0 ack 40 ------- 0 3.0 0.0 10 27
+ 0.335659 0 2 tcp 1040 ------- 0 0.0 3.0 21 34
- 0.335659 0 2 tcp 1040 ------- 0 0.0 3.0 21 34
+ 0.335659 0 2 tcp 1040 ------- 0 0.0 3.0 22 35
- 0.337323 0 2 tcp 1040 ------- 0 0.0 3.0 22 35
r 0.339141 3 2 ack 40 ------- 0 3.0 0.0 11 30
+ 0.339141 2 0 ack 40 ------- 0 3.0 0.0 11 30
- 0.339141 2 0 ack 40 ------- 0 3.0 0.0 11 30
r 0.339323 0 2 tcp 1040 ------- 0 0.0 3.0 21 34
+ 0.339323 2 3 tcp 1040 ------- 0 0.0 3.0 21 34
r 0.340021 2 3 tcp 1040 ------- 0 0.0 3.0 13 20
+ 0.340021 3 2 ack 40 ------- 0 3.0 0.0 13 36
- 0.340021 3 2 ack 40 ------- 0 3.0 0.0 13 36
r 0.340987 0 2 tcp 1040 ------- 0 0.0 3.0 22 35
+ 0.340987 2 3 tcp 1040 ------- 0 0.0 3.0 22 35
- 0.341115 2 3 tcp 1040 ------- 0 0.0 3.0 16 26
r 0.341205 2 0 ack 40 ------- 0 3.0 0.0 11 30
+ 0.341205 0 2 tcp 1040 ------- 0 0.0 3.0 23 37
- 0.341205 0 2 tcp 1040 ------- 0 0.0 3.0 23 37
+ 0.341205 0 2 tcp 1040 ------- 0 0.0 3.0 24 38
- 0.342869 0 2 tcp 1040 ------- 0 0.0 3.0 24 38
r 0.344688 3 2 ack 40 ------- 0 3.0 0.0 12 33
+ 0.344688 2 0 ack 40 ------- 0 3.0 0.0 12 33
- 0.344688 2 0 ack 40 ------- 0 3.0 0.0 12 33
r 0.344869 0 2 tcp 1040 ------- 0 0.0 3.0 23 37
+ 0.344869 2 3 tcp 1040 ------- 0 0.0 3.0 23 37
r 0.345568 2 3 tcp 1040 ------- 0 0.0 3.0 14 21
+ 0.345568 3 2 ack 40 ------- 0 3.0 0.0 14 39
- 0.345568 3 2 ack 40 ------- 0 3.0 0.0 14 39
r 0.346533 0 2 tcp 1040 ------- 0 0.0 3.0 24 38
+ 0.346533 2 3 tcp 1040 ------- 0 0.0 3.0 24 38
- 0.346661 2 3 tcp 1040 ------- 0 0.0 3.0 17 28
r 0.346752 2 0 ack 40 ------- 0 3.0 0.0 12 33
+ 0.346752 0 2 tcp 1040 ------- 0 0.0 3.0 25 40
- 0.346752 0 2 tcp 1040 ------- 0 0.0 3.0 25 40
+ 0.346752 0 2 tcp 1040 ------- 0 0.0 3.0 26 41
- 0.348416 0 2 tcp 1040 ------- 0 0.0 3.0 26 41
r 0.350235 3 2 ack 40 ------- 0 3.0 0.0 13 36
+ 0.350235 2 0 ack 40 ------- 0 3.0 0.0 13 36
- 0.350235 2 0 ack 40 ------- 0 3.0 0.0 13 36
r 0.350416 0 2 tcp 1040 ------- 0 0.0 3.0 25 40
+ 0.350416 2 3 tcp 1040 ------- 0 0.0 3.0 25 40
r 0.351115 2 3 tcp 1040 ------- 0 0.0 3.0 15 25
+ 0.351115 3 2 ack 40 ------- 0 3.0 0.0 15 42
- 0.351115 3 2 ack 40 ------- 0 3.0 0.0 15 42
r 0.35208 0 2 tcp 1040 ------- 0 0.0 3.0 26 41
+ 0.35208 2 3 tcp 1040 ------- 0 0.0 3.0 26 41
- 0.352208 2 3 tcp 1040 ------- 0 0.0 3.0 18 29
r 0.352299 2 0 ack 40 ------- 0 3.0 0.0 13 36
+ 0.352299 0 2 tcp 1040 ------- 0 0.0 3.0 27 43
- 0.352299 0 2 tcp 1040 ------- 0 0.0 3.0 27 43
+ 0.352299 0 2 tcp 1040 ------- 0 0.0 3.0 28 44
- 0.353963 0 2 tcp 1040 ------- 0 0.0 3.0 28 44
r 0.355781 3 2 ack 40 ------- 0 3.0 0.0 14 39
+ 0.355781 2 0 ack 40 ------- 0 3.0 0.0 14 39
- 0.355781 2 0 ack 40 ------- 0 3.0 0.0 14 39
r 0.355963 0 2 tcp 1040 ------- 0 0.0 3.0 27 43
+ 0.355963 2 3 tcp 1040 ------- 0 0.0 3.0 27 43
r 0.356661 2 3 tcp 1040 ------- 0 0.0 3.0 16 26
+ 0.356661 3 2 ack 40 ------- 0 3.0 0.0 16 45
- 0.356661 3 2 ack 40 ------- 0 3.0 0.0 16 45
r 0.357627 0 2 tcp 1040 ------- 0 0.0 3.0 28 44
+ 0.357627 2 3 tcp 1040 ------- 0 0.0 3.0 28 44
d 0.357627 2 3 tcp 1040 ------- 0 0.0 3.0 28 44
- 0.357755 2 3 tcp 1040 ------- 0 0.0 3.0 19 31
r 0.357845 2 0 ack 40 ------- 0 3.0 0.0 14 39
+ 0.357845 0 2 tcp 1040 ------- 0 0.0 3.0 29 46
- 0.357845 0 2 tcp 1040 ------- 0 0.0 3.0 29 46
+ 0.357845 0 2 tcp 1040 ------- 0 0.0 3.0 30 47
- 0.359509 0 2 tcp 1040 ------- 0 0.0 3.0 30 47
r 0.361328 3 2 ack 40 ------- 0 3.0 0.0 15 42
+ 0.361328 2 0 ack 40 ------- 0 3.0 0.0 15 42
- 0.361328 2 0 ack 40 ------- 0 3.0 0.0 15 42
r 0.361509 0 2 tcp 1040 ------- 0 0.0 3.0 29 46
+ 0.361509 2 3 tcp 1040 ------- 0 0.0 3.0 29 46
r 0.362208 2 3 tcp 1040 ------- 0 0.0 3.0 17 28
+ 0.362208 3 2 ack 40 ------- 0 3.0 0.0 17 48
- 0.362208 3 2 ack 40 ------- 0 3.0 0.0 17 48
r 0.363173 0 2 tcp 1040 ------- 0 0.0 3.0 30 47
+ 0.363173 2 3 tcp 1040 ------- 0 0.0 3.0 30 47
d 0.363173 2 3 tcp 1040 ------- 0 0.0 3.0 30 47
- 0.363301 2 3 tcp 1040 ------- 0 0.0 3.0 20 32
r 0.363392 2 0 ack 40 ------- 0 3.0 0.0 15 42
+ 0.363392 0 2 tcp 1040 ------- 0 0.0 3.0 31 49
- 0.363392 0 2 tcp 1040 ------- 0 0.0 3.0 31 49
+ 0.363392 0 2 tcp 1040 ------- 0 0.0 3.0 32 50
- 0.365056 0 2 tcp 1040 ------- 0 0.0 3.0 32 50
r 0.366875 3 2 ack 40 ------- 0 3.0 0.0 16 45
+ 0.366875 2 0 ack 40 ------- 0 3.0 0.0 16 45
- 0.366875 2 0 ack 40 ------- 0 3.0 0.0 16 45
r 0.367056 0 2 tcp 1040 ------- 0 0.0 3.0 31 49
+ 0.367056 2 3 tcp 1040 ------- 0 0.0 3.0 31 49
r 0.367755 2 3 tcp 1040 ------- 0 0.0 3.0 18 29
+ 0.367755 3 2 ack 40 ------- 0 3.0 0.0 18 51
- 0.367755 3 2 ack 40 ------- 0 3.0 0.0 18 51
r 0.36872 0 2 tcp 1040 ------- 0 0.0 3.0 32 50
+ 0.36872 2 3 tcp 1040 ------- 0 0.0 3.0 32 50
d 0.36872 2 3 tcp 1040 ------- 0 0.0 3.0 32 50
- 0.368848 2 3 tcp 1040 ------- 0 0.0 3.0 21 34
r 0.368939 2 0 ack 40 ------- 0 3.0 0.0 16 45
+ 0.368939 0 2 tcp 1040 ------- 0 0.0 3.0 33 52
- 0.368939 0 2 tcp 1040 ------- 0 0.0 3.0 33 52
+ 0.368939 0 2 tcp 1040 ------- 0 0.0 3.0 34 53
- 0.370603 0 2 tcp 1040 ------- 0 0.0 3.0 34 53
r 0.372421 3 2 ack 40 ------- 0 3.0 0.0 17 48
+ 0.372421 2 0 ack 40 ------- 0 3.0 0.0 17 48
- 0.372421 2 0 ack 40 ------- 0 3.0 0.0 17 48
r 0.372603 0 2 tcp 1040 ------- 0 0.0 3.0 33 52
+ 0.372603 2 3 tcp 1040 ------- 0 0.0 3.0 33 52
r 0.373301 2 3 tcp 1040 ------- 0 0.0 3.0 19 31
+ 0.373301 3 2 ack 40 ------- 0 3.0 0.0 19 54
- 0.373301 3 2 ack 40 ------- 0 3.0 0.0 19 54
r 0.374267 0 2 tcp 1040 ------- 0 0.0 3.0 34 53
+ 0.374267 2 3 tcp 1040 ------- 0 0.0 3.0 34 53
d 0.374267 2 3 tcp 1040 ------- 0 0.0 3.0 34 53
- 0.374395 2 3 tcp 1040 ------- 0 0.0 3.0 22 35
r 0.374485 2 0 ack 40 ------- 0 3.0 0.0 17 48
+ 0.374485 0 2 tcp 1040 ------- 0 0.0 3.0 35 55
- 0.374485 0 2 tcp 1040 ------- 0 0.0 3.0 35 55
+ 0.374485 0 2 tcp 1040 ------- 0 0.0 3.0 36 56
- 0.376149 0 2 tcp 1040 ------- 0 0.0 3.0 36 56
r 0.377968 3 2 ack 40 ------- 0 3.0 0.0 18 51
+ 0.377968 2 0 ack 40 ------- 0 3.0 0.0 18 51
- 0.377968 2 0 ack 40 ------- 0 3.0 0.0 18 51
r 0.378149 0 2 tcp 1040 ------- 0 0.0 3.0 35 55
+ 0.378149 2 3 tcp 1040 ------- 0 0.0 3.0 35 55
r 0.378848 2 3 tcp 1040 ------- 0 0.0 3.0 20 32
+ 0.378848 3 2 ack 40 ------- 0 3.0 0.0 20 57
- 0.378848 3 2 ack 40 ------- 0 3.0 0.0 20 57
r 0.379813 0 2 tcp 1040 ------- 0 0.0 3.0 36 56
+ 0.379813 2 3 tcp 1040 ------- 0 0.0 3.0 36 56
d 0.379813 2 3 tcp 1040 ------- 0 0.0 3.0 36 56
- 0.379941 2 3 tcp 1040 ------- 0 0.0 3.0 23 37
r 0.380032 2 0 ack 40 ------- 0 3.0 0.0 18 51
+ 0.380032 0 2 tcp 1040 ------- 0 0.0 3.0 37 58
- 0.380032 0 2 tcp 1040 ------- 0 0.0 3.0 37 58
+ 0.380032 0 2 tcp 1040 ------- 0 0.0 3.0 38 59
- 0.381696 0 2 tcp 1040 ------- 0 0.0 3.0 38 59
r 0.383515 3 2 ack 40 ------- 0 3.0 0.0 19 54
+ 0.383515 2 0 ack 40 ------- 0 3.0 0.0 19 54
- 0.383515 2 0 ack 40 ------- 0 3.0 0.0 19 54
r 0.383696 0 2 tcp 1040 ------- 0 0.0 3.0 37 58
+ 0.383696 2 3 tcp 1040 ------- 0 0.0 3.0 37 58
r 0.384395 2 3 tcp 1040 ------- 0 0.0 3.0 21 34
+ 0.384395 3 2 ack 40 ------- 0 3.0 0.0 21 60
- 0.384395 3 2 ack 40 ------- 0 3.0 0.0 21 60
r 0.38536 0 2 tcp 1040 ------- 0 0.0 3.0 38 59
+ 0.38536 2 3 tcp 1040 ------- 0 0.0 3.0 38 59
d 0.38536 2 3 tcp 1040 ------- 0 0.0 3.0 38 59
- 0.385488 2 3 tcp 1040 ------- 0 0.0 3.0 24 38
r 0.385579 2 0 ack 40 ------- 0 3.0 0.0 19 54
+ 0.385579 0 2 tcp 1040 ------- 0 0.0 3.0 39 61
- 0.385579 0 2 tcp 1040 ------- 0 0.0 3.0 39 61
r 0.389061 3 2 ack 40 ------- 0 3.0 0.0 20 57
+ 0.389061 2 0 ack 40 ------- 0 3.0 0.0 20 57
- 0.389061 2 0 ack 40 ------- 0 3.0 0.0 20 57
r 0.389243 0 2 tcp 1040 ------- 0 0.0 3.0 39 61
+ 0.389243 2 3 tcp 1040 ------- 0 0.0 3.0 39 61
r 0.389941 2 3 tcp 1040 ------- 0 0.0 3.0 22 35
+ 0.389941 3 2 ack 40 ------- 0 3.0 0.0 22 62
- 0.389941 3 2 ack 40 ------- 0 3.0 0.0 22 62
- 0.391035 2 3 tcp 1040 ------- 0 0.0 3.0 25 40
r 0.391125 2 0 ack 40 ------- 0 3.0 0.0 20 57
+ 0.391125 0 2 tcp 1040 ------- 0 0.0 3.0 40 63
- 0.391125 0 2 tcp 1040 ------- 0 0.0 3.0 40 63
r 0.394608 3 2 ack 40 ------- 0 3.0 0.0 21 60
+ 0.394608 2 0 ack 40 ------- 0 3.0 0.0 21 60
- 0.394608 2 0 ack 40 ------- 0 3.0 0.0 21 60
r 0.394789 0 2 tcp 1040 ------- 0 0.0 3.0 40 63
+ 0.394789 2 3 tcp 1040 ------- 0 0.0 3.0 40 63
r 0.395488 2 3 tcp 1040 ------- 0 0.0 3.0 23 37
+ 0.395488 3 2 ack 40 ------- 0 3.0 0.0 23 64
- 0.395488 3 2 ack 40 ------- 0 3.0 0.0 23 64
- 0.396581 2 3 tcp 1040 ------- 0 0.0 3.0 26 41
r 0.396672 2 0 ack 40 ------- 0 3.0 0.0 21 60
+ 0.396672 0 2 tcp 1040 ------- 0 0.0 3.0 41 65
- 0.396672 0 2 tcp 1040 ------- 0 0.0 3.0 41 65
r 0.400155 3 2 ack 40 ------- 0 3.0 0.0 22 62
+ 0.400155 2 0 ack 40 ------- 0 3.0 0.0 22 62
- 0.400155 2 0 ack 40 ------- 0 3.0 0.0 22 62
r 0.400336 0 2 tcp 1040 ------- 0 0.0 3.0 41 65
+ 0.400336 2 3 tcp 1040 ------- 0 0.0 3.0 41 65
r 0.401035 2 3 tcp 1040 ------- 0 0.0 3.0 24 38
+ 0.401035 3 2 ack 40 ------- 0 3.0 0.0 24 66
- 0.401035 3 2 ack 40 ------- 0 3.0 0.0 24 66
- 0.402128 2 3 tcp 1040 ------- 0 0.0 3.0 27 43
r 0.402219 2 0 ack 40 ------- 0 3.0 0.0 22 62
+ 0.402219 0 2 tcp 1040 ------- 0 0.0 3.0 42 67
- 0.402219 0 2 tcp 1040 ------- 0 0.0 3.0 42 67
r 0.405701 3 2 ack 40 ------- 0 3.0 0.0 23 64
+ 0.405701 2 0 ack 40 ------- 0 3.0 0.0 23 64
- 0.405701 2 0 ack 40 ------- 0 3.0 0.0 23 64
r 0.405883 0 2 tcp 1040 ------- 0 0.0 3.0 42 67
+ 0.405883 2 3 tcp 1040 ------- 0 0.0 3.0 42 67
r 0.406581 2 3 tcp 1040 ------- 0 0.0 3.0 25 40
+ 0.406581 3 2 ack 40 ------- 0 3.0 0.0 25 68
- 0.406581 3 2 ack 40 ------- 0 3.0 0.0 25 68
- 0.407675 2 3 tcp 1040 ------- 0 0.0 3.0 29 46
r 0.407765 2 0 ack 40 ------- 0 3.0 0.0 23 64
+ 0.407765 0 2 tcp 1040 ------- 0 0.0 3.0 43 69
- 0.407765 0 2 tcp 1040 ------- 0 0.0 3.0 43 69
r 0.411248 3 2 ack 40 ------- 0 3.0 0.0 24 66
+ 0.411248 2 0 ack 40 ------- 0 3.0 0.0 24 66
- 0.411248 2 0 ack 40 ------- 0 3.0 0.0 24 66
r 0.411429 0 2 tcp 1040 ------- 0 0.0 3.0 43 69
+ 0.411429 2 3 tcp 1040 ------- 0 0.0 3.0 43 69
r 0.412128 2 3 tcp 1040 ------- 0 0.0 3.0 26 41
+ 0.412128 3 2 ack 40 ------- 0 3.0 0.0 26 70
- 0.412128 3 2 ack 40 ------- 0 3.0 0.0 26 70
- 0.413221 2 3 tcp 1040 ------- 0 0.0 3.0 31 49
r 0.413312 2 0 ack 40 ------- 0 3.0 0.0 24 66
+ 0.413312 0 2 tcp 1040 ------- 0 0.0 3.0 44 71
- 0.413312 0 2 tcp 1040 ------- 0 0.0 3.0 44 71
r 0.416795 3 2 ack 40 ------- 0 3.0 0.0 25 68
+ 0.416795 2 0 ack 40 ------- 0 3.0 0.0 25 68
- 0.416795 2 0 ack 40 ------- 0 3.0 0.0 25 68
r 0.416976 0 2 tcp 1040 ------- 0 0.0 3.0 44 71
+ 0.416976 2 3 tcp 1040 ------- 0 0.0 3.0 44 71
r 0.417675 2 3 tcp 1040 ------- 0 0.0 3.0 27 43
+ 0.417675 3 2 ack 40 ------- 0 3.0 0.0 27 72
- 0.417675 3 2 ack 40 ------- 0 3.0 0.0 27 72
- 0.418768 2 3 tcp 1040 ------- 0 0.0 3.0 33 52
r 0.418859 2 0 ack 40 ------- 0 3.0 0.0 25 68
+ 0.418859 0 2 tcp 1040 ------- 0 0.0 3.0 45 73
- 0.418859 0 2 tcp 1040 ------- 0 0.0 3.0 45 73
r 0.422341 3 2 ack 40 ------- 0 3.0 0.0 26 70
+ 0.422341 2 0 ack 40 ------- 0 3.0 0.0 26 70
- 0.422341 2 0 ack 40 ------- 0 3.0 0.0 26 70
r 0.422523 0 2 tcp 1040 ------- 0 0.0 3.0 45 73
+ 0.422523 2 3 tcp 1040 ------- 0 0.0 3.0 45 73
r 0.423221 2 3 tcp 1040 ------- 0 0.0 3.0 29 46
+ 0.423221 3 2 ack 40 ------- 0 3.0 0.0 27 74
- 0.423221 3 2 ack 40 ------- 0 3.0 0.0 27 74
- 0.424315 2 3 tcp 1040 ------- 0 0.0 3.0 35 55
r 0.424405 2 0 ack 40 ------- 0 3.0 0.0 26 70
+ 0.424405 0 2 tcp 1040 ------- 0 0.0 3.0 46 75
- 0.424405 0 2 tcp 1040 ------- 0 0.0 3.0 46 75
r 0.427888 3 2 ack 40 ------- 0 3.0 0.0 27 72
+ 0.427888 2 0 ack 40 ------- 0 3.0 0.0 27 72
- 0.427888 2 0 ack 40 ------- 0 3.0 0.0 27 72
r 0.428069 0 2 tcp 1040 ------- 0 0.0 3.0 46 75
+ 0.428069 2 3 tcp 1040 ------- 0 0.0 3.0 46 75
r 0.428768 2 3 tcp 1040 ------- 0 0.0 3.0 31 49
+ 0.428768 3 2 ack 40 ------- 0 3.0 0.0 27 76
- 0.428768 3 2 ack 40 ------- 0 3.0 0.0 27 76
- 0.429861 2 3 tcp 1040 ------- 0 0.0 3.0 37 58
r 0.429952 2 0 ack 40 ------- 0 3.0 0.0 27 72
+ 0.429952 0 2 tcp 1040 ------- 0 0.0 3.0 47 77
- 0.429952 0 2 tcp 1040 ------- 0 0.0 3.0 47 77
r 0.433435 3 2 ack 40 ------- 0 3.0 0.0 27 74
+ 0.433435 2 0 ack 40 ------- 0 3.0 0.0 27 74
- 0.433435 2 0 ack 40 ------- 0 3.0 0.0 27 74
r 0.433616 0 2 tcp 1040 ------- 0 0.0 3.0 47 77
+ 0.433616 2 3 tcp 1040 ------- 0 0.0 3.0 47 77
r 0.434315 2 3 tcp 1040 ------- 0 0.0 3.0 33 52
+ 0.434315 3 2 ack 40 ------- 0 3.0 0.0 27 78
- 0.434315 3 2 ack 40 ------- 0 3.0 0.0 27 78
- 0.435408 2 3 tcp 1040 ------- 0 0.0 3.0 39 61
r 0.435499 2 0 ack 40 ------- 0 3.0 0.0 27 74
r 0.438981 3 2 ack 40 ------- 0 3.0 0.0 27 76
+ 0.438981 2 0 ack 40 ------- 0 3.0 0.0 27 76
- 0.438981 2 0 ack 40 ------- 0 3.0 0.0 27 76
r 0.439861 2 3 tcp 1040 ------- 0 0.0 3.0 35 55
+ 0.439861 3 2 ack 40 ------- 0 3.0 0.0 27 79
- 0.439861 3 2 ack 40 ------- 0 3.0 0.0 27 79
- 0.440955 2 3 tcp 1040 ------- 0 0.0 3.0 40 63
r 0.441045 2 0 ack 40 ------- 0 3.0 0.0 27 76
r 0.444528 3 2 ack 40 ------- 0 3.0 0.0 27 78
+ 0.444528 2 0 ack 40 ------- 0 3.0 0.0 27 78
- 0.444528 2 0 ack 40 ------- 0 3.0 0.0 27 78
r 0.445408 2 3 tcp 1040 ------- 0 0.0 3.0 37 58
+ 0.445408 3 2 ack 40 ------- 0 3.0 0.0 27 80
- 0.445408 3 2 ack 40 ------- 0 3.0 0.0 27 80
- 0.446501 2 3 tcp 1040 ------- 0 0.0 3.0 41 65
r 0.446592 2 0 ack 40 ------- 0 3.0 0.0 27 78
+ 0.446592 0 2 tcp 1040 ---A--- 0 0.0 3.0 28 81
- 0.446592 0 2 tcp 1040 ---A--- 0 0.0 3.0 28 81
r 0.450075 3 2 ack 40 ------- 0 3.0 0.0 27 79
+ 0.450075 2 0 ack 40 ------- 0 3.0 0.0 27 79
- 0.450075 2 0 ack 40 ------- 0 3.0 0.0 27 79
r 0.450256 0 2 tcp 1040 ---A--- 0 0.0 3.0 28 81
+ 0.450256 2 3 tcp 1040 ---A--- 0 0.0 3.0 28 81
r 0.450955 2 3 tcp 1040 ------- 0 0.0 3.0 39 61
+ 0.450955 3 2 ack 40 ------- 0 3.0 0.0 27 82
- 0.450955 3 2 ack 40 ------- 0 3.0 0.0 27 82
- 0.452048 2 3 tcp 1040 ------- 0 0.0 3.0 42 67
r 0.452139 2 0 ack 40 ------- 0 3.0 0.0 27 79
r 0.455621 3 2 ack 40 ------- 0 3.0 0.0 27 80
+ 0.455621 2 0 ack 40 ------- 0 3.0 0.0 27 80
- 0.455621 2 0 ack 40 ------- 0 3.0 0.0 27 80
r 0.456501 2 3 tcp 1040 ------- 0 0.0 3.0 40 63
+ 0.456501 3 2 ack 40 ------- 0 3.0 0.0 27 83
- 0.456501 3 2 ack 40 ------- 0 3.0 0.0 27 83
- 0.457595 2 3 tcp 1040 ------- 0 0.0 3.0 43 69
r 0.457685 2 0 ack 40 ------- 0 3.0 0.0 27 80
r 0.461168 3 2 ack 40 ------- 0 3.0 0.0 27 82
+ 0.461168 2 0 ack 40 ------- 0 3.0 0.0 27 82
- 0.461168 2 0 ack 40 ------- 0 3.0 0.0 27 82
r 0.462048 2 3 tcp 1040 ------- 0 0.0 3.0 41 65
+ 0.462048 3 2 ack 40 ------- 0 3.0 0.0 27 84
- 0.462048 3 2 ack 40 ------- 0 3.0 0.0 27 84
- 0.463141 2 3 tcp 1040 ------- 0 0.0 3.0 44 71
r 0.463232 2 0 ack 40 ------- 0 3.0 0.0 27 82
r 0.466715 3 2 ack 40 ------- 0 3.0 0.0 27 83
+ 0.466715 2 0 ack 40 ------- 0 3.0 0.0 27 83
- 0.466715 2 0 ack 40 ------- 0 3.0 0.0 27 83
r 0.467595 2 3 tcp 1040 ------- 0 0.0 3.0 42 67
+ 0.467595 3 2 ack 40 ------- 0 3.0 0.0 27 85
- 0.467595 3 2 ack 40 ------- 0 3.0 0.0 27 85
- 0.468688 2 3 tcp 1040 ------- 0 0.0 3.0 45 73
r 0.468779 2 0 ack 40 ------- 0 3.0 0.0 27 83
r 0.472261 3 2 ack 40 ------- 0 3.0 0.0 27 84
+ 0.472261 2 0 ack 40 ------- 0 3.0 0.0 27 84
- 0.472261 2 0 ack 40 ------- 0 3.0 0.0 27 84
r 0.473141 2 3 tcp 1040 ------- 0 0.0 3.0 43 69
+ 0.473141 3 2 ack 40 ------- 0 3.0 0.0 27 86
- 0.473141 3 2 ack 40 ------- 0 3.0 0.0 27 86
- 0.474235 2 3 tcp 1040 ------- 0 0.0 3.0 46 75
r 0.474325 2 0 ack 40 ------- 0 3.0 0.0 27 84
r 0.477808 3 2 ack 40 ------- 0 3.0 0.0 27 85
+ 0.477808 2 0 ack 40 ------- 0 3.0 0.0 27 85
- 0.477808 2 0 ack 40 ------- 0 3.0 0.0 27 85
r 0.478688 2 3 tcp 1040 ------- 0 0.0 3.0 44 71
+ 0.478688 3 2 ack 40 ------- 0 3.0 0.0 27 87
- 0.478688 3 2 ack 40 ------- 0 3.0 0.0 27 87
- 0.479781 2 3 tcp 1040 ------- 0 0.0 3.0 47 77
r 0.479872 2 0 ack 40 ------- 0 3.0 0.0 27 85
r 0.483355 3 2 ack 40 ------- 0 3.0 0.0 27 86
+ 0.483355 2 0 ack 40 ------- 0 3.0 0.0 27 86
- 0.483355 2 0 ack 40 ------- 0 3.0 0.0 27 86
r 0.484235 2 3 tcp 1040 ------- 0 0.0 3.0 45 73
+ 0.484235 3 2 ack 40 ------- 0 3.0 0.0 27 88
- 0.484235 3 2 ack 40 ------- 0 3.0 0.0 27 88
- 0.485328 2 3 tcp 1040 ---A--- 0 0.0 3.0 28 81
r 0.485419 2 0 ack 40 ------- 0 3.0 0.0 27 86
r 0.488901 3 2 ack 40 ------- 0 3.0 0.0 27 87
+ 0.488901 2 0 ack 40 ------- 0 3.0 0.0 27 87
- 0.488901 2 0 ack 40 ------- 0 3.0 0.0 27 87
r 0.489781 2 3 tcp 1040 ------- 0 0.0 3.0 46 75
+ 0.489781 3 2 ack 40 ------- 0 3.0 0.0 27 89
- 0.489781 3 2 ack 40 ------- 0 3.0 0.0 27 89
r 0.490965 2 0 ack 40 ------- 0 3.0 0.0 27 87
r 0.494448 3 2 ack 40 ------- 0 3.0 0.0 27 88
+ 0.494448 2 0 ack 40 ------- 0 3.0 0.0 27 88
- 0.494448 2 0 ack 40 ------- 0 3.0 0.0 27 88
r 0.495328 2 3 tcp 1040 ------- 0 0.0 3.0 47 77
+ 0.495328 3 2 ack 40 ------- 0 3.0 0.0 27 90
- 0.495328 3 2 ack 40 ------- 0 3.0 0.0 27 90
r 0.496512 2 0 ack 40 ------- 0 3.0 0.0 27 88
r 0.499995 3 2 ack 40 ------- 0 3.0 0.0 27 89
+ 0.499995 2 0 ack 40 ------- 0 3.0 0.0 27 89
- 0.499995 2 0 ack 40 ------- 0 3.0 0.0 27 89
r 0.500875 2 3 tcp 1040 ---A--- 0 0.0 3.0 28 81
+ 0.500875 3 2 ack 40 ------- 0 3.0 0.0 29 91
- 0.500875 3 2 ack 40 ------- 0 3.0 0.0 29 91
r 0.502059 2 0 ack 40 ------- 0 3.0 0.0 27 89
r 0.505541 3 2 ack 40 ------- 0 3.0 0.0 27 90
+ 0.505541 2 0 ack 40 ------- 0 3.0 0.0 27 90
- 0.505541 2 0 ack 40 ------- 0 3.0 0.0 27 90
r 0.507605 2 0 ack 40 ------- 0 3.0 0.0 27 90
r 0.511088 3 2 ack 40 ------- 0 3.0 0.0 29 91
+ 0.511088 2 0 ack 40 ------- 0 3.0 0.0 29 91
- 0.511088 2 0 ack 40 ------- 0 3.0 0.0 29 91
r 0.513152 2 0 ack 40 ------- 0 3.0 0.0 29 91
+ 0.513152 0 2 tcp 1040 ------- 0 0.0 3.0 30 92
- 0.513152 0 2 tcp 1040 ------- 0 0.0 3.0 30 92
+ 0.513152 0 2 tcp 1040 ------- 0 0.0 3.0 31 93
- 0.514816 0 2 tcp 1040 ------- 0 0.0 3.0 31 93
r 0.516816 0 2 tcp 1040 ------- 0 0.0 3.0 30 92
+ 0.516816 2 3 tcp 1040 ------- 0 0.0 3.0 30 92
- 0.516816 2 3 tcp 1040 ------- 0 0.0 3.0 30 92
r 0.51848 0 2 tcp 1040 ------- 0 0.0 3.0 31 93
+ 0.51848 2 3 tcp 1040 ------- 0 0.0 3.0 31 93
- 0.522363 2 3 tcp 1040 ------- 0 0.0 3.0 31 93
r 0.532363 2 3 tcp 1040 ------- 0 0.0 3.0 30 92
+ 0.532363 3 2 ack 40 ------- 0 3.0 0.0 31 94
- 0.532363 3 2 ack 40 ------- 0 3.0 0.0 31 94
r 0.537909 2 3 tcp 1040 ------- 0 0.0 3.0 31 93
+ 0.537909 3 2 ack 40 ------- 0 3.0 0.0 31 95
- 0.537909 3 2 ack 40 ------- 0 3.0 0.0 31 95
r 0.542576 3 2 ack 40 ------- 0 3.0 0.0 31 94
+ 0.542576 2 0 ack 40 ------- 0 3.0 0.0 31 94
- 0.542576 2 0 ack 40 ------- 0 3.0 0.0 31 94
r 0.54464 2 0 ack 40 ------- 0 3.0 0.0 31 94
+ 0.54464 0 2 tcp 1040 ------- 0 0.0 3.0 32 96
- 0.54464 0 2 tcp 1040 ------- 0 0.0 3.0 32 96
+ 0.54464 0 2 tcp 1040 ------- 0 0.0 3.0 33 97
+ 0.54464 0 2 tcp 1040 ------- 0 0.0 3.0 34 98
- 0.546304 0 2 tcp 1040 ------- 0 0.0 3.0 33 97
- 0.547968 0 2 tcp 1040 ------- 0 0.0 3.0 34 98
r 0.548123 3 2 ack 40 ------- 0 3.0 0.0 31 95
+ 0.548123 2 0 ack 40 ------- 0 3.0 0.0 31 95
- 0.548123 2 0 ack 40 ------- 0 3.0 0.0 31 95
r 0.548304 0 2 tcp 1040 ------- 0 0.0 3.0 32 96
+ 0.548304 2 3 tcp 1040 ------- 0 0.0 3.0 32 96
- 0.548304 2 3 tcp 1040 ------- 0 0.0 3.0 32 96
r 0.549968 0 2 tcp 1040 ------- 0 0.0 3.0 33 97
+ 0.549968 2 3 tcp 1040 ------- 0 0.0 3.0 33 97
r 0.550187 2 0 ack 40 ------- 0 3.0 0.0 31 95
+ 0.550187 0 2 tcp 1040 ------- 0 0.0 3.0 35 99
- 0.550187 0 2 tcp 1040 ------- 0 0.0 3.0 35 99
r 0.551632 0 2 tcp 1040 ------- 0 0.0 3.0 34 98
+ 0.551632 2 3 tcp 1040 ------- 0 0.0 3.0 34 98
- 0.553851 2 3 tcp 1040 ------- 0 0.0 3.0 33 97
r 0.553851 0 2 tcp 1040 ------- 0 0.0 3.0 35 99
+ 0.553851 2 3 tcp 1040 ------- 0 0.0 3.0 35 99
- 0.559397 2 3 tcp 1040 ------- 0 0.0 3.0 34 98
r 0.563851 2 3 tcp 1040 ------- 0 0.0 3.0 32 96
+ 0.563851 3 2 ack 40 ------- 0 3.0 0.0 33 100
- 0.563851 3 2 ack 40 ------- 0 3.0 0.0 33 100
- 0.564944 2 3 tcp 1040 ------- 0 0.0 3.0 35 99
r 0.569397 2 3 tcp 1040 ------- 0 0.0 3.0 33 97
+ 0.569397 3 2 ack 40 ------- 0 3.0 0.0 33 101
- 0.569397 3 2 ack 40 ------- 0 3.0 0.0 33 101
r 0.574064 3 2 ack 40 ------- 0 3.0 0.0 33 100
+ 0.574064 2 0 ack 40 ------- 0 3.0 0.0 33 100
- 0.574064 2 0 ack 40 ------- 0 3.0 0.0 33 100
r 0.574944 2 3 tcp 1040 ------- 0 0.0 3.0 34 98
+ 0.574944 3 2 ack 40 ------- 0 3.0 0.0 35 102
- 0.574944 3 2 ack 40 ------- 0 3.0 0.0 35 102
r 0.576128 2 0 ack 40 ------- 0 3.0 0.0 33 100
+ 0.576128 0 2 tcp 1040 ------- 0 0.0 3.0 36 103
- 0.576128 0 2 tcp 1040 ------- 0 0.0 3.0 36 103
+ 0.576128 0 2 tcp 1040 ------- 0 0.0 3.0 37 104
- 0.577792 0 2 tcp 1040 ------- 0 0.0 3.0 37 104
r 0.579611 3 2 ack 40 ------- 0 3.0 0.0 33 101
+ 0.579611 2 0 ack 40 ------- 0 3.0 0.0 33 101
- 0.579611 2 0 ack 40 ------- 0 3.0 0.0 33 101
r 0.579792 0 2 tcp 1040 ------- 0 0.0 3.0 36 103
+ 0.579792 2 3 tcp 1040 ------- 0 0.0 3.0 36 103
- 0.579792 2 3 tcp 1040 ------- 0 0.0 3.0 36 103
r 0.580491 2 3 tcp 1040 ------- 0 0.0 3.0 35 99
+ 0.580491 3 2 ack 40 ------- 0 3.0 0.0 35 105
- 0.580491 3 2 ack 40 ------- 0 3.0 0.0 35 105
r 0.581456 0 2 tcp 1040 ------- 0 0.0 3.0 37 104
+ 0.581456 2 3 tcp 1040 ------- 0 0.0 3.0 37 104
r 0.581675 2 0 ack 40 ------- 0 3.0 0.0 33 101
+ 0.581675 0 2 tcp 1040 ------- 0 0.0 3.0 38 106
- 0.581675 0 2 tcp 1040 ------- 0 0.0 3.0 38 106
r 0.585157 3 2 ack 40 ------- 0 3.0 0.0 35 102
+ 0.585157 2 0 ack 40 ------- 0 3.0 0.0 35 102
- 0.585157 2 0 ack 40 ------- 0 3.0 0.0 35 102
- 0.585339 2 3 tcp 1040 ------- 0 0.0 3.0 37 104
r 0.585339 0 2 tcp 1040 ------- 0 0.0 3.0 38 106
+ 0.585339 2 3 tcp 1040 ------- 0 0.0 3.0 38 106
r 0.587221 2 0 ack 40 ------- 0 3.0 0.0 35 102
+ 0.587221 0 2 tcp 1040 ------- 0 0.0 3.0 39 107
- 0.587221 0 2 tcp 1040 ------- 0 0.0 3.0 39 107
+ 0.587221 0 2 tcp 1040 ------- 0 0.0 3.0 40 108
- 0.588885 0 2 tcp 1040 ------- 0 0.0 3.0 40 108
r 0.590704 3 2 ack 40 ------- 0 3.0 0.0 35 105
+ 0.590704 2 0 ack 40 ------- 0 3.0 0.0 35 105
- 0.590704 2 0 ack 40 ------- 0 3.0 0.0 35 105
- 0.590885 2 3 tcp 1040 ------- 0 0.0 3.0 38 106
r 0.590885 0 2 tcp 1040 ------- 0 0.0 3.0 39 107
+ 0.590885 2 3 tcp 1040 ------- 0 0.0 3.0 39 107
r 0.592549 0 2 tcp 1040 ------- 0 0.0 3.0 40 108
+ 0.592549 2 3 tcp 1040 ------- 0 0.0 3.0 40 108
r 0.592768 2 0 ack 40 ------- 0 3.0 0.0 35 105